
     Program PWSCF v.6.1 (svn rev. 13369) starts on 22Jan2018 at 14:55:37 

     This program is part of the open-source Quantum ESPRESSO suite
     for quantum simulation of materials; please cite
         "P. Giannozzi et al., J. Phys.:Condens. Matter 21 395502 (2009);
          URL http://www.quantum-espresso.org", 
     in publications or presentations arising from this work. More details at
     http://www.quantum-espresso.org/quote

     Parallel version (MPI), running on     4 processors
     R & G space division:  proc/nbgrp/npool/nimage =       4
     Waiting for input...
     Reading input from standard input

     Current dimensions of program PWSCF are:
     Max number of different atomic species (ntypx) = 10
     Max number of k-points (npk) =  40000
     Max angular momentum in pseudopotentials (lmaxx) =  3

     Subspace diagonalization in iterative solution of the eigenvalue problem:
     a serial algorithm will be used


   Info: using nr1, nr2, nr3 values from input

     Parallelization info
     --------------------
     sticks:   dense  smooth     PW     G-vecs:    dense   smooth      PW
     Min         973     485    198                12373     4372    1154
     Max         974     486    199                12374     4373    1155
     Sum        3893    1941    793                49495    17489    4617



     bravais-lattice index     =            0
     lattice parameter (alat)  =      11.0780  a.u.
     unit-cell volume          =     366.4370 (a.u.)^3
     number of atoms/cell      =            2
     number of atomic types    =            1
     number of electrons       =        28.00
     number of Kohn-Sham states=           18
     kinetic-energy cutoff     =      50.0000  Ry
     charge density cutoff     =     400.0000  Ry
     convergence threshold     =      1.0E-10
     mixing beta               =       0.7000
     number of iterations used =            8  plain     mixing
     Exchange-correlation      =  SLA  PW   PBX  PBC ( 1  4  3  4 0 0)

     celldm(1)=  11.078033  celldm(2)=   0.000000  celldm(3)=   0.000000
     celldm(4)=   0.000000  celldm(5)=   0.000000  celldm(6)=   0.000000

     crystal axes: (cart. coord. in units of alat)
               a(1) = (   1.000000   0.000000   0.000000 )  
               a(2) = (   0.000000   1.000000   0.000000 )  
               a(3) = (   0.500000   0.500000   0.269533 )  

     reciprocal axes: (cart. coord. in units 2 pi/alat)
               b(1) = (  1.000000  0.000000 -1.855063 )  
               b(2) = (  0.000000  1.000000 -1.855063 )  
               b(3) = (  0.000000  0.000000  3.710126 )  


     PseudoPot. # 1 for Sn read from file:
     /home/s1333534/quantum_espresso/qe-6.1/pseudo/sn_pbe_v1.4.uspp.F.UPF
     MD5 check sum: 469debedee59599fedebd795477fea03
     Pseudo is Ultrasoft + core correction, Zval = 14.0
     Generated by new atomic code, or converted to UPF format
     Using radial grid of  891 points,  6 beta functions with: 
                l(1) =   0
                l(2) =   0
                l(3) =   1
                l(4) =   1
                l(5) =   2
                l(6) =   2
     Q(r) pseudized with  8 coefficients,  rinner =    1.350   1.350   1.350
                                                       1.350   1.350

     atomic species   valence    mass     pseudopotential
        Sn            14.00   118.71000     Sn( 1.00)

     16 Sym. Ops., with inversion, found (12 have fractional translation)



   Cartesian axes

     site n.     atom                  positions (alat units)
         1           Sn  tau(   1) = (   1.0000000   1.2500000   0.2021495  )
         2           Sn  tau(   2) = (   0.5000000   0.2500000   0.0673832  )

     number of k points=   687  Marzari-Vanderbilt smearing, width (Ry)=  0.0200

     Number of k-points >= 100: set verbosity='high' to print them.

     Dense  grid:    49495 G-vectors     FFT dimensions: (  80,  80,  80)

     Smooth grid:    17489 G-vectors     FFT dimensions: (  50,  50,  40)

     Estimated max dynamical RAM per process >     118.72MB

     Estimated total allocated dynamical RAM >     474.87MB

     Initial potential from superposition of free atoms

     starting charge   25.99991, renormalised to   28.00000
     Starting wfc are   18 randomized atomic wfcs

     total cpu time spent up to now is       22.7 secs

     per-process dynamical memory:   128.8 Mb

     Self-consistent Calculation

     iteration #  1     ecut=    50.00 Ry     beta=0.70
     Davidson diagonalization with overlap
     ethr =  1.00E-02,  avg # of iterations =  3.4

     total cpu time spent up to now is      111.1 secs

     total energy              =    -317.56758280 Ry
     Harris-Foulkes estimate   =    -319.49800992 Ry
     estimated scf accuracy    <       2.36411059 Ry

     iteration #  2     ecut=    50.00 Ry     beta=0.70
     Davidson diagonalization with overlap
     ethr =  8.44E-03,  avg # of iterations =  2.7

     total cpu time spent up to now is      190.1 secs

     total energy              =    -318.40142231 Ry
     Harris-Foulkes estimate   =    -318.67293388 Ry
     estimated scf accuracy    <       0.39442581 Ry

     iteration #  3     ecut=    50.00 Ry     beta=0.70
     Davidson diagonalization with overlap
     ethr =  1.41E-03,  avg # of iterations =  2.0

     total cpu time spent up to now is      265.2 secs

     total energy              =    -318.48205093 Ry
     Harris-Foulkes estimate   =    -318.48313655 Ry
     estimated scf accuracy    <       0.00201210 Ry

     iteration #  4     ecut=    50.00 Ry     beta=0.70
     Davidson diagonalization with overlap
     ethr =  7.19E-06,  avg # of iterations =  3.4

     total cpu time spent up to now is      348.7 secs

     total energy              =    -318.48252355 Ry
     Harris-Foulkes estimate   =    -318.48259688 Ry
     estimated scf accuracy    <       0.00010802 Ry

     iteration #  5     ecut=    50.00 Ry     beta=0.70
     Davidson diagonalization with overlap
     ethr =  3.86E-07,  avg # of iterations =  2.0

     total cpu time spent up to now is      425.6 secs

     total energy              =    -318.48255130 Ry
     Harris-Foulkes estimate   =    -318.48255123 Ry
     estimated scf accuracy    <       0.00000013 Ry

     iteration #  6     ecut=    50.00 Ry     beta=0.70
     Davidson diagonalization with overlap
     ethr =  4.58E-10,  avg # of iterations =  4.0

     total cpu time spent up to now is      527.2 secs

     total energy              =    -318.48255156 Ry
     Harris-Foulkes estimate   =    -318.48255156 Ry
     estimated scf accuracy    <          4.8E-09 Ry

     iteration #  7     ecut=    50.00 Ry     beta=0.70
     Davidson diagonalization with overlap
     ethr =  1.71E-11,  avg # of iterations =  2.0

     total cpu time spent up to now is      603.9 secs

     End of self-consistent calculation

     Number of k-points >= 100: set verbosity='high' to print the bands.

     the Fermi energy is    10.7347 ev

!    total energy              =    -318.48255156 Ry
     Harris-Foulkes estimate   =    -318.48255156 Ry
     estimated scf accuracy    <          4.9E-11 Ry

     The total energy is the sum of the following terms:

     one-electron contribution =    -111.25576372 Ry
     hartree contribution      =      76.06739962 Ry
     xc contribution           =     -86.02696856 Ry
     ewald contribution        =    -197.26739525 Ry
     smearing contrib. (-TS)   =       0.00017634 Ry

     convergence has been achieved in   7 iterations


     Computing stress (Cartesian axis) and pressure

          total   stress  (Ry/bohr**3)                   (kbar)     P=    0.02
  -0.00000042   0.00000000   0.00000000         -0.06      0.00      0.00
   0.00000000  -0.00000042   0.00000000          0.00     -0.06      0.00
  -0.00000000   0.00000000   0.00000127         -0.00      0.00      0.19


     Writing output data file sn.beta.save

     init_run     :     22.09s CPU     22.60s WALL (       1 calls)
     electrons    :    569.96s CPU    581.24s WALL (       1 calls)
     stress       :      4.51s CPU      4.56s WALL (       1 calls)

     Called by init_run:
     wfcinit      :     21.47s CPU     21.94s WALL (       1 calls)
     potinit      :      0.18s CPU      0.20s WALL (       1 calls)

     Called by electrons:
     c_bands      :    461.61s CPU    471.11s WALL (       7 calls)
     sum_band     :    106.96s CPU    108.62s WALL (       7 calls)
     v_of_rho     :      0.98s CPU      1.05s WALL (       8 calls)
     newd         :      0.41s CPU      0.46s WALL (       8 calls)
     mix_rho      :      0.10s CPU      0.10s WALL (       7 calls)

     Called by c_bands:
     init_us_2    :      3.14s CPU      3.19s WALL (   10992 calls)
     cegterg      :    455.58s CPU    464.97s WALL (    4809 calls)

     Called by sum_band:
     sum_band:bec :      0.07s CPU      0.07s WALL (    4809 calls)
     addusdens    :      0.46s CPU      0.54s WALL (       7 calls)

     Called by *egterg:
     h_psi        :    444.85s CPU    454.22s WALL (   18923 calls)
     s_psi        :      1.95s CPU      1.99s WALL (   18923 calls)
     g_psi        :      0.76s CPU      0.77s WALL (   13427 calls)
     cdiaghg      :     12.10s CPU     12.26s WALL (   18236 calls)

     Called by h_psi:
     h_psi:pot    :    443.81s CPU    453.15s WALL (   18923 calls)
     h_psi:calbec :      5.07s CPU      5.20s WALL (   18923 calls)
     vloc_psi     :    436.18s CPU    445.34s WALL (   18923 calls)
     add_vuspsi   :      2.47s CPU      2.53s WALL (   18923 calls)

     General routines
     calbec       :      6.81s CPU      6.97s WALL (   24419 calls)
     fft          :      0.72s CPU      0.78s WALL (     138 calls)
     ffts         :      0.01s CPU      0.01s WALL (      15 calls)
     fftw         :    283.38s CPU    289.42s WALL (  635706 calls)
     interpolate  :      0.11s CPU      0.12s WALL (      15 calls)
     davcio       :      0.01s CPU      0.07s WALL (     687 calls)

     Parallel routines
     fft_scatter  :     63.20s CPU     65.01s WALL (  635859 calls)

     PWSCF        :  9m57.28s CPU    10m 9.25s WALL


   This run was terminated on:  15: 5:46  22Jan2018            

=------------------------------------------------------------------------------=
   JOB DONE.
=------------------------------------------------------------------------------=
