
     Program PWSCF v.6.1 (svn rev. 13369) starts on 22Jan2018 at 13:52:12 

     This program is part of the open-source Quantum ESPRESSO suite
     for quantum simulation of materials; please cite
         "P. Giannozzi et al., J. Phys.:Condens. Matter 21 395502 (2009);
          URL http://www.quantum-espresso.org", 
     in publications or presentations arising from this work. More details at
     http://www.quantum-espresso.org/quote

     Parallel version (MPI), running on     4 processors
     R & G space division:  proc/nbgrp/npool/nimage =       4
     Waiting for input...
     Reading input from standard input

     Current dimensions of program PWSCF are:
     Max number of different atomic species (ntypx) = 10
     Max number of k-points (npk) =  40000
     Max angular momentum in pseudopotentials (lmaxx) =  3

     Subspace diagonalization in iterative solution of the eigenvalue problem:
     a serial algorithm will be used


   Info: using nr1, nr2, nr3 values from input

     Parallelization info
     --------------------
     sticks:   dense  smooth     PW     G-vecs:    dense   smooth      PW
     Min        1220     485    198                17269     4372    1154
     Max        1221     486    199                17270     4373    1155
     Sum        4881    1941    793                69077    17489    4617



     bravais-lattice index     =            0
     lattice parameter (alat)  =      11.0780  a.u.
     unit-cell volume          =     366.4370 (a.u.)^3
     number of atoms/cell      =            2
     number of atomic types    =            1
     number of electrons       =        28.00
     number of Kohn-Sham states=           18
     kinetic-energy cutoff     =      50.0000  Ry
     charge density cutoff     =     500.0000  Ry
     convergence threshold     =      1.0E-10
     mixing beta               =       0.7000
     number of iterations used =            8  plain     mixing
     Exchange-correlation      =  SLA  PW   PBX  PBC ( 1  4  3  4 0 0)
     nstep                     =           50


     celldm(1)=  11.078033  celldm(2)=   0.000000  celldm(3)=   0.000000
     celldm(4)=   0.000000  celldm(5)=   0.000000  celldm(6)=   0.000000

     crystal axes: (cart. coord. in units of alat)
               a(1) = (   1.000000   0.000000   0.000000 )  
               a(2) = (   0.000000   1.000000   0.000000 )  
               a(3) = (   0.500000   0.500000   0.269533 )  

     reciprocal axes: (cart. coord. in units 2 pi/alat)
               b(1) = (  1.000000  0.000000 -1.855063 )  
               b(2) = (  0.000000  1.000000 -1.855063 )  
               b(3) = (  0.000000  0.000000  3.710126 )  


     PseudoPot. # 1 for Sn read from file:
     /home/s1333534/quantum_espresso/qe-6.1/pseudo/sn_pbe_v1.4.uspp.F.UPF
     MD5 check sum: 469debedee59599fedebd795477fea03
     Pseudo is Ultrasoft + core correction, Zval = 14.0
     Generated by new atomic code, or converted to UPF format
     Using radial grid of  891 points,  6 beta functions with: 
                l(1) =   0
                l(2) =   0
                l(3) =   1
                l(4) =   1
                l(5) =   2
                l(6) =   2
     Q(r) pseudized with  8 coefficients,  rinner =    1.350   1.350   1.350
                                                       1.350   1.350

     atomic species   valence    mass     pseudopotential
        Sn            14.00   118.71000     Sn( 1.00)

     16 Sym. Ops., with inversion, found (12 have fractional translation)



   Cartesian axes

     site n.     atom                  positions (alat units)
         1           Sn  tau(   1) = (   1.0000000   1.2500000   0.2021495  )
         2           Sn  tau(   2) = (   0.5000000   0.2500000   0.0673832  )

     number of k points=   687  Marzari-Vanderbilt smearing, width (Ry)=  0.0200

     Number of k-points >= 100: set verbosity='high' to print them.

     Dense  grid:    69077 G-vectors     FFT dimensions: (  80,  80,  80)

     Smooth grid:    17489 G-vectors     FFT dimensions: (  50,  50,  40)

     Estimated max dynamical RAM per process >     120.64MB

     Estimated total allocated dynamical RAM >     482.57MB

     Initial potential from superposition of free atoms

     starting charge   25.99991, renormalised to   28.00000
     Starting wfc are   18 randomized atomic wfcs

     total cpu time spent up to now is       22.6 secs

     per-process dynamical memory:   133.4 Mb

     Self-consistent Calculation

     iteration #  1     ecut=    50.00 Ry     beta=0.70
     Davidson diagonalization with overlap
     ethr =  1.00E-02,  avg # of iterations =  3.4

     total cpu time spent up to now is      104.1 secs

     total energy              =    -317.56771391 Ry
     Harris-Foulkes estimate   =    -319.49768064 Ry
     estimated scf accuracy    <       2.36391740 Ry

     iteration #  2     ecut=    50.00 Ry     beta=0.70
     Davidson diagonalization with overlap
     ethr =  8.44E-03,  avg # of iterations =  2.7

     total cpu time spent up to now is      178.0 secs

     total energy              =    -318.40142764 Ry
     Harris-Foulkes estimate   =    -318.67288804 Ry
     estimated scf accuracy    <       0.39435158 Ry

     iteration #  3     ecut=    50.00 Ry     beta=0.70
     Davidson diagonalization with overlap
     ethr =  1.41E-03,  avg # of iterations =  2.0

     total cpu time spent up to now is      249.0 secs

     total energy              =    -318.48204529 Ry
     Harris-Foulkes estimate   =    -318.48313044 Ry
     estimated scf accuracy    <       0.00201186 Ry

     iteration #  4     ecut=    50.00 Ry     beta=0.70
     Davidson diagonalization with overlap
     ethr =  7.19E-06,  avg # of iterations =  3.4

     total cpu time spent up to now is      324.9 secs

     total energy              =    -318.48251767 Ry
     Harris-Foulkes estimate   =    -318.48259099 Ry
     estimated scf accuracy    <       0.00010805 Ry

     iteration #  5     ecut=    50.00 Ry     beta=0.70
     Davidson diagonalization with overlap
     ethr =  3.86E-07,  avg # of iterations =  2.0

     total cpu time spent up to now is      394.2 secs

     total energy              =    -318.48254543 Ry
     Harris-Foulkes estimate   =    -318.48254536 Ry
     estimated scf accuracy    <       0.00000013 Ry

     iteration #  6     ecut=    50.00 Ry     beta=0.70
     Davidson diagonalization with overlap
     ethr =  4.56E-10,  avg # of iterations =  4.0

     total cpu time spent up to now is      487.5 secs

     total energy              =    -318.48254570 Ry
     Harris-Foulkes estimate   =    -318.48254570 Ry
     estimated scf accuracy    <          4.8E-09 Ry

     iteration #  7     ecut=    50.00 Ry     beta=0.70
     Davidson diagonalization with overlap
     ethr =  1.71E-11,  avg # of iterations =  2.0

     total cpu time spent up to now is      556.7 secs

     End of self-consistent calculation

     Number of k-points >= 100: set verbosity='high' to print the bands.

     the Fermi energy is    10.7347 ev

!    total energy              =    -318.48254570 Ry
     Harris-Foulkes estimate   =    -318.48254570 Ry
     estimated scf accuracy    <          4.9E-11 Ry

     The total energy is the sum of the following terms:

     one-electron contribution =    -111.25574784 Ry
     hartree contribution      =      76.06738108 Ry
     xc contribution           =     -86.02696001 Ry
     ewald contribution        =    -197.26739526 Ry
     smearing contrib. (-TS)   =       0.00017634 Ry

     convergence has been achieved in   7 iterations

     Forces acting on atoms (cartesian axes, Ry/au):

     atom    1 type  1   force =     0.00000000    0.00000000    0.00000000
     atom    2 type  1   force =     0.00000000    0.00000000    0.00000000

     Total force =     0.000000     Total SCF correction =     0.000000


     Computing stress (Cartesian axis) and pressure

          total   stress  (Ry/bohr**3)                   (kbar)     P=   -0.01
  -0.00000064   0.00000000   0.00000000         -0.09      0.00      0.00
   0.00000000  -0.00000064   0.00000000          0.00     -0.09      0.00
   0.00000000   0.00000000   0.00000106          0.00      0.00      0.16


     BFGS Geometry Optimization

     bfgs converged in   1 scf cycles and   0 bfgs steps
     (criteria: energy <  1.0E-04 Ry, force <  1.0E-03Ry/Bohr, cell <  3.0E-01kbar)

     End of BFGS Geometry Optimization

     Final enthalpy =    -318.4825456962 Ry
Begin final coordinates
     new unit-cell volume =    366.43699 a.u.^3 (    54.30036 Ang^3 )
     density =      7.26045 g/cm^3

CELL_PARAMETERS (alat= 11.07803293)
   1.000000000   0.000000000   0.000000000
   0.000000000   1.000000000   0.000000000
   0.500000000   0.500000000   0.269532635

ATOMIC_POSITIONS (crystal)
Sn       0.625000000   0.875000000   0.750000000
Sn       0.375000000   0.125000000   0.250000000
End final coordinates



     A final scf calculation at the relaxed structure.
     The G-vectors are recalculated for the final unit cell
     Results may differ from those at the preceding step.

     Parallelization info
     --------------------
     sticks:   dense  smooth     PW     G-vecs:    dense   smooth      PW
     Min        1220     485    198                17269     4372    1154
     Max        1221     486    199                17270     4373    1155
     Sum        4881    1941    793                69077    17489    4617



     bravais-lattice index     =            0
     lattice parameter (alat)  =      11.0780  a.u.
     unit-cell volume          =     366.4370 (a.u.)^3
     number of atoms/cell      =            2
     number of atomic types    =            1
     number of electrons       =        28.00
     number of Kohn-Sham states=           18
     kinetic-energy cutoff     =      50.0000  Ry
     charge density cutoff     =     500.0000  Ry
     convergence threshold     =      1.0E-10
     mixing beta               =       0.7000
     number of iterations used =            8  plain     mixing
     Exchange-correlation      =  SLA  PW   PBX  PBC ( 1  4  3  4 0 0)

     celldm(1)=  11.078033  celldm(2)=   0.000000  celldm(3)=   0.000000
     celldm(4)=   0.000000  celldm(5)=   0.000000  celldm(6)=   0.000000

     crystal axes: (cart. coord. in units of alat)
               a(1) = (   1.000000   0.000000   0.000000 )  
               a(2) = (   0.000000   1.000000   0.000000 )  
               a(3) = (   0.500000   0.500000   0.269533 )  

     reciprocal axes: (cart. coord. in units 2 pi/alat)
               b(1) = (  1.000000  0.000000 -1.855063 )  
               b(2) = (  0.000000  1.000000 -1.855063 )  
               b(3) = (  0.000000  0.000000  3.710126 )  


     PseudoPot. # 1 for Sn read from file:
     /home/s1333534/quantum_espresso/qe-6.1/pseudo/sn_pbe_v1.4.uspp.F.UPF
     MD5 check sum: 469debedee59599fedebd795477fea03
     Pseudo is Ultrasoft + core correction, Zval = 14.0
     Generated by new atomic code, or converted to UPF format
     Using radial grid of  891 points,  6 beta functions with: 
                l(1) =   0
                l(2) =   0
                l(3) =   1
                l(4) =   1
                l(5) =   2
                l(6) =   2
     Q(r) pseudized with  8 coefficients,  rinner =    1.350   1.350   1.350
                                                       1.350   1.350

     atomic species   valence    mass     pseudopotential
        Sn            14.00   118.71000     Sn( 1.00)

     16 Sym. Ops., with inversion, found (12 have fractional translation)



   Cartesian axes

     site n.     atom                  positions (alat units)
         1           Sn  tau(   1) = (   1.0000000   1.2500000   0.2021495  )
         2           Sn  tau(   2) = (   0.5000000   0.2500000   0.0673832  )

     number of k points=   687  Marzari-Vanderbilt smearing, width (Ry)=  0.0200

     Number of k-points >= 100: set verbosity='high' to print them.

     Dense  grid:    69077 G-vectors     FFT dimensions: (  80,  80,  60)

     Smooth grid:    17489 G-vectors     FFT dimensions: (  50,  50,  40)

     Estimated max dynamical RAM per process >     118.44MB

     Estimated total allocated dynamical RAM >     473.78MB

     Initial potential from superposition of free atoms

     starting charge   25.99991, renormalised to   28.00000
     Starting wfc are   18 randomized atomic wfcs

     Writing output data file sn.beta.relax.save

     total cpu time spent up to now is      582.1 secs

     per-process dynamical memory:   143.1 Mb

     Self-consistent Calculation

     iteration #  1     ecut=    50.00 Ry     beta=0.70
     Davidson diagonalization with overlap
     c_bands:  1 eigenvalues not converged
     c_bands:  1 eigenvalues not converged
     c_bands:  1 eigenvalues not converged
     c_bands:  1 eigenvalues not converged
     c_bands:  1 eigenvalues not converged
     c_bands:  1 eigenvalues not converged
     c_bands:  1 eigenvalues not converged
     c_bands:  1 eigenvalues not converged
     c_bands:  2 eigenvalues not converged
     c_bands:  1 eigenvalues not converged
     ethr =  1.00E-06,  avg # of iterations = 11.0

     total cpu time spent up to now is      713.7 secs

     total energy              =    -317.55712325 Ry
     Harris-Foulkes estimate   =    -319.49920361 Ry
     estimated scf accuracy    <       2.37847575 Ry

     iteration #  2     ecut=    50.00 Ry     beta=0.70
     Davidson diagonalization with overlap
     ethr =  8.49E-03,  avg # of iterations =  2.7

     total cpu time spent up to now is      771.9 secs

     total energy              =    -318.39984496 Ry
     Harris-Foulkes estimate   =    -318.67633076 Ry
     estimated scf accuracy    <       0.40210296 Ry

     iteration #  3     ecut=    50.00 Ry     beta=0.70
     Davidson diagonalization with overlap
     ethr =  1.44E-03,  avg # of iterations =  2.0

     total cpu time spent up to now is      826.8 secs

     total energy              =    -318.48202920 Ry
     Harris-Foulkes estimate   =    -318.48316030 Ry
     estimated scf accuracy    <       0.00208995 Ry

     iteration #  4     ecut=    50.00 Ry     beta=0.70
     Davidson diagonalization with overlap
     ethr =  7.46E-06,  avg # of iterations =  3.5

     total cpu time spent up to now is      888.9 secs

     total energy              =    -318.48251788 Ry
     Harris-Foulkes estimate   =    -318.48259295 Ry
     estimated scf accuracy    <       0.00011058 Ry

     iteration #  5     ecut=    50.00 Ry     beta=0.70
     Davidson diagonalization with overlap
     ethr =  3.95E-07,  avg # of iterations =  2.0

     total cpu time spent up to now is      944.8 secs

     total energy              =    -318.48254552 Ry
     Harris-Foulkes estimate   =    -318.48254544 Ry
     estimated scf accuracy    <       0.00000013 Ry

     iteration #  6     ecut=    50.00 Ry     beta=0.70
     Davidson diagonalization with overlap
     ethr =  4.64E-10,  avg # of iterations =  3.9

     total cpu time spent up to now is     1017.2 secs

     total energy              =    -318.48254569 Ry
     Harris-Foulkes estimate   =    -318.48254570 Ry
     estimated scf accuracy    <          7.8E-09 Ry

     iteration #  7     ecut=    50.00 Ry     beta=0.70
     Davidson diagonalization with overlap
     ethr =  2.77E-11,  avg # of iterations =  2.2

     total cpu time spent up to now is     1073.6 secs

     End of self-consistent calculation

     Number of k-points >= 100: set verbosity='high' to print the bands.

     the Fermi energy is    10.7347 ev

!    total energy              =    -318.48254570 Ry
     Harris-Foulkes estimate   =    -318.48254570 Ry
     estimated scf accuracy    <          4.0E-11 Ry

     The total energy is the sum of the following terms:

     one-electron contribution =    -111.25574636 Ry
     hartree contribution      =      76.06737992 Ry
     xc contribution           =     -86.02696033 Ry
     ewald contribution        =    -197.26739526 Ry
     smearing contrib. (-TS)   =       0.00017634 Ry

     convergence has been achieved in   7 iterations

     Forces acting on atoms (cartesian axes, Ry/au):

     atom    1 type  1   force =     0.00000000    0.00000000   -0.00000000
     atom    2 type  1   force =     0.00000000    0.00000000    0.00000000

     Total force =     0.000000     Total SCF correction =     0.000000


     Computing stress (Cartesian axis) and pressure

          total   stress  (Ry/bohr**3)                   (kbar)     P=   -0.02
  -0.00000071   0.00000000   0.00000000         -0.10      0.00      0.00
   0.00000000  -0.00000071   0.00000000          0.00     -0.10      0.00
   0.00000000   0.00000000   0.00000100          0.00      0.00      0.15


     Writing output data file sn.beta.relax.save

     init_run     :     38.18s CPU     39.46s WALL (       2 calls)
     electrons    :   1001.88s CPU   1025.55s WALL (       2 calls)
     forces       :      2.79s CPU      2.84s WALL (       2 calls)
     stress       :     10.61s CPU     10.71s WALL (       2 calls)

     Called by init_run:
     wfcinit      :     35.50s CPU     36.69s WALL (       2 calls)
     potinit      :      0.55s CPU      0.57s WALL (       2 calls)

     Called by electrons:
     c_bands      :    843.43s CPU    863.44s WALL (      14 calls)
     sum_band     :    155.51s CPU    158.96s WALL (      14 calls)
     v_of_rho     :      1.86s CPU      1.92s WALL (      16 calls)
     newd         :      1.13s CPU      1.26s WALL (      16 calls)
     mix_rho      :      0.18s CPU      0.18s WALL (      14 calls)

     Called by c_bands:
     init_us_2    :      7.42s CPU      7.55s WALL (   23358 calls)
     cegterg      :    830.80s CPU    850.57s WALL (    9618 calls)

     Called by sum_band:
     sum_band:bec :      0.15s CPU      0.16s WALL (    9618 calls)
     addusdens    :      1.30s CPU      1.49s WALL (      14 calls)

     Called by *egterg:
     h_psi        :    785.00s CPU    804.73s WALL (   43225 calls)
     s_psi        :      5.92s CPU      6.06s WALL (   43225 calls)
     g_psi        :      1.73s CPU      1.76s WALL (   32233 calls)
     cdiaghg      :     30.24s CPU     30.67s WALL (   41851 calls)

     Called by h_psi:
     h_psi:pot    :    781.47s CPU    801.13s WALL (   43225 calls)
     h_psi:calbec :     12.45s CPU     12.75s WALL (   43225 calls)
     vloc_psi     :    760.54s CPU    779.70s WALL (   43225 calls)
     add_vuspsi   :      8.28s CPU      8.48s WALL (   43225 calls)

     General routines
     calbec       :     16.96s CPU     17.35s WALL (   59713 calls)
     fft          :      1.58s CPU      1.69s WALL (     298 calls)
     ffts         :      0.02s CPU      0.02s WALL (      30 calls)
     fftw         :    565.58s CPU    580.54s WALL ( 1353174 calls)
     interpolate  :      0.20s CPU      0.22s WALL (      30 calls)
     davcio       :      0.03s CPU      0.11s WALL (    1374 calls)

     Parallel routines
     fft_scatter  :    101.95s CPU    105.25s WALL ( 1353502 calls)

     PWSCF        : 17m34.81s CPU    18m 0.13s WALL


   This run was terminated on:  14:10:12  22Jan2018            

=------------------------------------------------------------------------------=
   JOB DONE.
=------------------------------------------------------------------------------=
