
     Program PWSCF v.6.1 (svn rev. 13369) starts on 22Jan2018 at 13:33:32 

     This program is part of the open-source Quantum ESPRESSO suite
     for quantum simulation of materials; please cite
         "P. Giannozzi et al., J. Phys.:Condens. Matter 21 395502 (2009);
          URL http://www.quantum-espresso.org", 
     in publications or presentations arising from this work. More details at
     http://www.quantum-espresso.org/quote

     Parallel version (MPI), running on     4 processors
     R & G space division:  proc/nbgrp/npool/nimage =       4
     Waiting for input...
     Reading input from standard input

     Current dimensions of program PWSCF are:
     Max number of different atomic species (ntypx) = 10
     Max number of k-points (npk) =  40000
     Max angular momentum in pseudopotentials (lmaxx) =  3

     Subspace diagonalization in iterative solution of the eigenvalue problem:
     a serial algorithm will be used


     Parallelization info
     --------------------
     sticks:   dense  smooth     PW     G-vecs:    dense   smooth      PW
     Min         526     264     78                16016     5664     958
     Max         527     265     79                16019     5665     963
     Sum        2107    1057    313                64071    22659    3839



     bravais-lattice index     =            2
     lattice parameter (alat)  =      12.3826  a.u.
     unit-cell volume          =     474.6507 (a.u.)^3
     number of atoms/cell      =            2
     number of atomic types    =            1
     number of electrons       =        28.00
     number of Kohn-Sham states=           14
     kinetic-energy cutoff     =      50.0000  Ry
     charge density cutoff     =     400.0000  Ry
     convergence threshold     =      1.0E-10
     mixing beta               =       0.7000
     number of iterations used =            8  plain     mixing
     Exchange-correlation      =  SLA  PW   PBX  PBC ( 1  4  3  4 0 0)
     nstep                     =           50


     celldm(1)=  12.382587  celldm(2)=   0.000000  celldm(3)=   0.000000
     celldm(4)=   0.000000  celldm(5)=   0.000000  celldm(6)=   0.000000

     crystal axes: (cart. coord. in units of alat)
               a(1) = (  -0.500000   0.000000   0.500000 )  
               a(2) = (   0.000000   0.500000   0.500000 )  
               a(3) = (  -0.500000   0.500000   0.000000 )  

     reciprocal axes: (cart. coord. in units 2 pi/alat)
               b(1) = ( -1.000000 -1.000000  1.000000 )  
               b(2) = (  1.000000  1.000000  1.000000 )  
               b(3) = ( -1.000000  1.000000 -1.000000 )  


     PseudoPot. # 1 for Sn read from file:
     /home/s1333534/quantum_espresso/qe-6.1/pseudo/sn_pbe_v1.4.uspp.F.UPF
     MD5 check sum: 469debedee59599fedebd795477fea03
     Pseudo is Ultrasoft + core correction, Zval = 14.0
     Generated by new atomic code, or converted to UPF format
     Using radial grid of  891 points,  6 beta functions with: 
                l(1) =   0
                l(2) =   0
                l(3) =   1
                l(4) =   1
                l(5) =   2
                l(6) =   2
     Q(r) pseudized with  8 coefficients,  rinner =    1.350   1.350   1.350
                                                       1.350   1.350

     atomic species   valence    mass     pseudopotential
        Sn            14.00   118.71000     Sn( 1.00)

     48 Sym. Ops., with inversion, found (24 have fractional translation)



   Cartesian axes

     site n.     atom                  positions (alat units)
         1           Sn  tau(   1) = (   0.0000000   0.0000000   0.0000000  )
         2           Sn  tau(   2) = (  -0.2500000   0.2500000   0.2500000  )

     number of k points=   408

     Number of k-points >= 100: set verbosity='high' to print them.

     Dense  grid:    64071 G-vectors     FFT dimensions: (  60,  60,  60)

     Smooth grid:    22659 G-vectors     FFT dimensions: (  40,  40,  40)

     Estimated max dynamical RAM per process >      73.61MB

     Estimated total allocated dynamical RAM >     294.43MB

     Initial potential from superposition of free atoms

     starting charge   25.99991, renormalised to   28.00000
     Starting wfc are   18 randomized atomic wfcs

     total cpu time spent up to now is        6.7 secs

     per-process dynamical memory:    85.0 Mb

     Self-consistent Calculation

     iteration #  1     ecut=    50.00 Ry     beta=0.70
     Davidson diagonalization with overlap
     ethr =  1.00E-02,  avg # of iterations =  2.8

     total cpu time spent up to now is       22.1 secs

     total energy              =    -317.48942314 Ry
     Harris-Foulkes estimate   =    -319.53924308 Ry
     estimated scf accuracy    <       2.49793368 Ry

     iteration #  2     ecut=    50.00 Ry     beta=0.70
     Davidson diagonalization with overlap
     ethr =  8.92E-03,  avg # of iterations =  3.0

     total cpu time spent up to now is       38.8 secs

     total energy              =    -318.39297209 Ry
     Harris-Foulkes estimate   =    -318.71013637 Ry
     estimated scf accuracy    <       0.47298083 Ry

     iteration #  3     ecut=    50.00 Ry     beta=0.70
     Davidson diagonalization with overlap
     ethr =  1.69E-03,  avg # of iterations =  2.0

     total cpu time spent up to now is       53.4 secs

     total energy              =    -318.48766053 Ry
     Harris-Foulkes estimate   =    -318.48923457 Ry
     estimated scf accuracy    <       0.00288295 Ry

     iteration #  4     ecut=    50.00 Ry     beta=0.70
     Davidson diagonalization with overlap
     ethr =  1.03E-05,  avg # of iterations =  3.0

     total cpu time spent up to now is       69.2 secs

     total energy              =    -318.48855412 Ry
     Harris-Foulkes estimate   =    -318.48867259 Ry
     estimated scf accuracy    <       0.00017596 Ry

     iteration #  5     ecut=    50.00 Ry     beta=0.70
     Davidson diagonalization with overlap
     ethr =  6.28E-07,  avg # of iterations =  3.0

     total cpu time spent up to now is       85.1 secs

     total energy              =    -318.48860755 Ry
     Harris-Foulkes estimate   =    -318.48860820 Ry
     estimated scf accuracy    <       0.00000140 Ry

     iteration #  6     ecut=    50.00 Ry     beta=0.70
     Davidson diagonalization with overlap
     ethr =  4.98E-09,  avg # of iterations =  4.0

     total cpu time spent up to now is      102.4 secs

     total energy              =    -318.48860830 Ry
     Harris-Foulkes estimate   =    -318.48860836 Ry
     estimated scf accuracy    <       0.00000008 Ry

     iteration #  7     ecut=    50.00 Ry     beta=0.70
     Davidson diagonalization with overlap
     ethr =  2.99E-10,  avg # of iterations =  3.0

     total cpu time spent up to now is      118.6 secs

     total energy              =    -318.48860834 Ry
     Harris-Foulkes estimate   =    -318.48860834 Ry
     estimated scf accuracy    <          2.2E-09 Ry

     iteration #  8     ecut=    50.00 Ry     beta=0.70
     Davidson diagonalization with overlap
     ethr =  7.74E-12,  avg # of iterations =  3.4

     total cpu time spent up to now is      132.6 secs

     End of self-consistent calculation

     Number of k-points >= 100: set verbosity='high' to print the bands.

     highest occupied level (ev):     7.5487

!    total energy              =    -318.48860834 Ry
     Harris-Foulkes estimate   =    -318.48860834 Ry
     estimated scf accuracy    <          4.6E-11 Ry

     The total energy is the sum of the following terms:

     one-electron contribution =    -157.95168597 Ry
     hartree contribution      =      96.00052658 Ry
     xc contribution           =     -86.00564525 Ry
     ewald contribution        =    -170.53180370 Ry

     convergence has been achieved in   8 iterations

     Forces acting on atoms (cartesian axes, Ry/au):

     atom    1 type  1   force =     0.00000000    0.00000000    0.00000000
     atom    2 type  1   force =    -0.00000000   -0.00000000   -0.00000000

     Total force =     0.000000     Total SCF correction =     0.000000


     Computing stress (Cartesian axis) and pressure

          total   stress  (Ry/bohr**3)                   (kbar)     P=   -0.10
  -0.00000067  -0.00000000  -0.00000000         -0.10     -0.00     -0.00
  -0.00000000  -0.00000067   0.00000000         -0.00     -0.10      0.00
  -0.00000000   0.00000000  -0.00000067         -0.00      0.00     -0.10


     BFGS Geometry Optimization

     bfgs converged in   1 scf cycles and   0 bfgs steps
     (criteria: energy <  1.0E-04 Ry, force <  1.0E-03Ry/Bohr, cell <  3.0E-01kbar)

     End of BFGS Geometry Optimization

     Final enthalpy =    -318.4886083357 Ry
Begin final coordinates
     new unit-cell volume =    474.65071 a.u.^3 (    70.33598 Ang^3 )
     density =      5.60517 g/cm^3

CELL_PARAMETERS (alat= 12.38258663)
  -0.500000000   0.000000000   0.500000000
   0.000000000   0.500000000   0.500000000
  -0.500000000   0.500000000   0.000000000

ATOMIC_POSITIONS (crystal)
Sn       0.000000000   0.000000000   0.000000000
Sn       0.250000000   0.250000000   0.250000000
End final coordinates



     A final scf calculation at the relaxed structure.
     The G-vectors are recalculated for the final unit cell
     Results may differ from those at the preceding step.

     Parallelization info
     --------------------
     sticks:   dense  smooth     PW     G-vecs:    dense   smooth      PW
     Min         526     264     78                16016     5664     958
     Max         527     265     79                16019     5665     963
     Sum        2107    1057    313                64071    22659    3839



     bravais-lattice index     =            2
     lattice parameter (alat)  =      12.3826  a.u.
     unit-cell volume          =     474.6507 (a.u.)^3
     number of atoms/cell      =            2
     number of atomic types    =            1
     number of electrons       =        28.00
     number of Kohn-Sham states=           14
     kinetic-energy cutoff     =      50.0000  Ry
     charge density cutoff     =     400.0000  Ry
     convergence threshold     =      1.0E-10
     mixing beta               =       0.7000
     number of iterations used =            8  plain     mixing
     Exchange-correlation      =  SLA  PW   PBX  PBC ( 1  4  3  4 0 0)

     celldm(1)=  12.382587  celldm(2)=   0.000000  celldm(3)=   0.000000
     celldm(4)=   0.000000  celldm(5)=   0.000000  celldm(6)=   0.000000

     crystal axes: (cart. coord. in units of alat)
               a(1) = (  -0.500000   0.000000   0.500000 )  
               a(2) = (   0.000000   0.500000   0.500000 )  
               a(3) = (  -0.500000   0.500000   0.000000 )  

     reciprocal axes: (cart. coord. in units 2 pi/alat)
               b(1) = ( -1.000000 -1.000000  1.000000 )  
               b(2) = (  1.000000  1.000000  1.000000 )  
               b(3) = ( -1.000000  1.000000 -1.000000 )  


     PseudoPot. # 1 for Sn read from file:
     /home/s1333534/quantum_espresso/qe-6.1/pseudo/sn_pbe_v1.4.uspp.F.UPF
     MD5 check sum: 469debedee59599fedebd795477fea03
     Pseudo is Ultrasoft + core correction, Zval = 14.0
     Generated by new atomic code, or converted to UPF format
     Using radial grid of  891 points,  6 beta functions with: 
                l(1) =   0
                l(2) =   0
                l(3) =   1
                l(4) =   1
                l(5) =   2
                l(6) =   2
     Q(r) pseudized with  8 coefficients,  rinner =    1.350   1.350   1.350
                                                       1.350   1.350

     atomic species   valence    mass     pseudopotential
        Sn            14.00   118.71000     Sn( 1.00)

     48 Sym. Ops., with inversion, found (24 have fractional translation)



   Cartesian axes

     site n.     atom                  positions (alat units)
         1           Sn  tau(   1) = (   0.0000000   0.0000000   0.0000000  )
         2           Sn  tau(   2) = (  -0.2500000   0.2500000   0.2500000  )

     number of k points=   408

     Number of k-points >= 100: set verbosity='high' to print them.

     Dense  grid:    64071 G-vectors     FFT dimensions: (  60,  60,  60)

     Smooth grid:    22659 G-vectors     FFT dimensions: (  40,  40,  40)

     Estimated max dynamical RAM per process >      73.61MB

     Estimated total allocated dynamical RAM >     294.43MB

     Initial potential from superposition of free atoms

     starting charge   25.99991, renormalised to   28.00000
     Starting wfc are   18 randomized atomic wfcs

     Writing output data file sn.alpha.relax.save

     total cpu time spent up to now is      145.1 secs

     per-process dynamical memory:    95.0 Mb

     Self-consistent Calculation

     iteration #  1     ecut=    50.00 Ry     beta=0.70
     Davidson diagonalization with overlap
     ethr =  1.00E-06,  avg # of iterations =  8.9

     total cpu time spent up to now is      179.2 secs

     total energy              =    -317.45982257 Ry
     Harris-Foulkes estimate   =    -319.54357754 Ry
     estimated scf accuracy    <       2.53990097 Ry

     iteration #  2     ecut=    50.00 Ry     beta=0.70
     Davidson diagonalization with overlap
     ethr =  9.07E-03,  avg # of iterations =  3.0

     total cpu time spent up to now is      196.0 secs

     total energy              =    -318.38825000 Ry
     Harris-Foulkes estimate   =    -318.71975799 Ry
     estimated scf accuracy    <       0.49657673 Ry

     iteration #  3     ecut=    50.00 Ry     beta=0.70
     Davidson diagonalization with overlap
     ethr =  1.77E-03,  avg # of iterations =  2.0

     total cpu time spent up to now is      210.7 secs

     total energy              =    -318.48760024 Ry
     Harris-Foulkes estimate   =    -318.48936584 Ry
     estimated scf accuracy    <       0.00325993 Ry

     iteration #  4     ecut=    50.00 Ry     beta=0.70
     Davidson diagonalization with overlap
     ethr =  1.16E-05,  avg # of iterations =  2.7

     total cpu time spent up to now is      226.2 secs

     total energy              =    -318.48855699 Ry
     Harris-Foulkes estimate   =    -318.48867429 Ry
     estimated scf accuracy    <       0.00017723 Ry

     iteration #  5     ecut=    50.00 Ry     beta=0.70
     Davidson diagonalization with overlap
     ethr =  6.33E-07,  avg # of iterations =  2.2

     total cpu time spent up to now is      241.7 secs

     total energy              =    -318.48860724 Ry
     Harris-Foulkes estimate   =    -318.48860816 Ry
     estimated scf accuracy    <       0.00000169 Ry

     iteration #  6     ecut=    50.00 Ry     beta=0.70
     Davidson diagonalization with overlap
     ethr =  6.02E-09,  avg # of iterations =  4.0

     total cpu time spent up to now is      261.3 secs

     total energy              =    -318.48860833 Ry
     Harris-Foulkes estimate   =    -318.48860834 Ry
     estimated scf accuracy    <       0.00000002 Ry

     iteration #  7     ecut=    50.00 Ry     beta=0.70
     Davidson diagonalization with overlap
     ethr =  8.17E-11,  avg # of iterations =  3.1

     total cpu time spent up to now is      276.7 secs

     total energy              =    -318.48860833 Ry
     Harris-Foulkes estimate   =    -318.48860834 Ry
     estimated scf accuracy    <          5.0E-09 Ry

     iteration #  8     ecut=    50.00 Ry     beta=0.70
     Davidson diagonalization with overlap
     ethr =  1.80E-11,  avg # of iterations =  2.3

     total cpu time spent up to now is      290.4 secs

     total energy              =    -318.48860834 Ry
     Harris-Foulkes estimate   =    -318.48860834 Ry
     estimated scf accuracy    <          1.5E-10 Ry

     iteration #  9     ecut=    50.00 Ry     beta=0.70
     Davidson diagonalization with overlap
     ethr =  5.24E-13,  avg # of iterations =  4.0

     total cpu time spent up to now is      309.3 secs

     End of self-consistent calculation

     Number of k-points >= 100: set verbosity='high' to print the bands.

     highest occupied level (ev):     7.5487

!    total energy              =    -318.48860834 Ry
     Harris-Foulkes estimate   =    -318.48860834 Ry
     estimated scf accuracy    <          1.9E-11 Ry

     The total energy is the sum of the following terms:

     one-electron contribution =    -157.95170124 Ry
     hartree contribution      =      96.00054705 Ry
     xc contribution           =     -86.00565044 Ry
     ewald contribution        =    -170.53180370 Ry

     convergence has been achieved in   9 iterations

     Forces acting on atoms (cartesian axes, Ry/au):

     atom    1 type  1   force =    -0.00000000   -0.00000000   -0.00000000
     atom    2 type  1   force =     0.00000000    0.00000000    0.00000000

     Total force =     0.000000     Total SCF correction =     0.000000


     Computing stress (Cartesian axis) and pressure

          total   stress  (Ry/bohr**3)                   (kbar)     P=   -0.05
  -0.00000037  -0.00000000  -0.00000000         -0.05     -0.00     -0.00
  -0.00000000  -0.00000037   0.00000000         -0.00     -0.05      0.00
  -0.00000000   0.00000000  -0.00000037         -0.00      0.00     -0.05


     Writing output data file sn.alpha.relax.save

     init_run     :     12.39s CPU     12.69s WALL (       2 calls)
     electrons    :    281.47s CPU    290.20s WALL (       2 calls)
     forces       :      1.97s CPU      2.00s WALL (       2 calls)
     stress       :      7.76s CPU      7.82s WALL (       2 calls)

     Called by init_run:
     wfcinit      :     10.32s CPU     10.59s WALL (       2 calls)
     potinit      :      0.30s CPU      0.31s WALL (       2 calls)

     Called by electrons:
     c_bands      :    244.09s CPU    251.41s WALL (      17 calls)
     sum_band     :     35.47s CPU     36.67s WALL (      17 calls)
     v_of_rho     :      0.85s CPU      0.87s WALL (      19 calls)
     newd         :      1.12s CPU      1.30s WALL (      19 calls)
     mix_rho      :      0.08s CPU      0.08s WALL (      17 calls)

     Called by c_bands:
     init_us_2    :      6.58s CPU      6.71s WALL (   16320 calls)
     cegterg      :    232.80s CPU    239.94s WALL (    6936 calls)

     Called by sum_band:
     sum_band:bec :      0.07s CPU      0.07s WALL (    6936 calls)
     addusdens    :      1.27s CPU      1.47s WALL (      17 calls)

     Called by *egterg:
     h_psi        :    197.59s CPU    204.26s WALL (   30817 calls)
     s_psi        :      3.76s CPU      3.86s WALL (   30817 calls)
     g_psi        :      1.31s CPU      1.33s WALL (   23065 calls)
     cdiaghg      :     13.41s CPU     13.65s WALL (   30001 calls)

     Called by h_psi:
     h_psi:pot    :    195.68s CPU    202.30s WALL (   30817 calls)
     h_psi:calbec :      8.07s CPU      8.38s WALL (   30817 calls)
     vloc_psi     :    182.48s CPU    188.63s WALL (   30817 calls)
     add_vuspsi   :      4.99s CPU      5.16s WALL (   30817 calls)

     General routines
     calbec       :     10.61s CPU     10.99s WALL (   41833 calls)
     fft          :      0.45s CPU      0.47s WALL (     346 calls)
     ffts         :      0.01s CPU      0.01s WALL (      36 calls)
     fftw         :    166.76s CPU    172.47s WALL (  775306 calls)
     interpolate  :      0.08s CPU      0.08s WALL (      36 calls)
     davcio       :      0.02s CPU      0.05s WALL (     816 calls)

     Parallel routines
     fft_scatter  :     28.47s CPU     29.61s WALL (  775688 calls)

     PWSCF        :  5m 4.45s CPU     5m13.69s WALL


   This run was terminated on:  13:38:45  22Jan2018            

=------------------------------------------------------------------------------=
   JOB DONE.
=------------------------------------------------------------------------------=
