
     Program PWSCF v.6.1 (svn rev. 13369) starts on 22Jan2018 at 12:27:33 

     This program is part of the open-source Quantum ESPRESSO suite
     for quantum simulation of materials; please cite
         "P. Giannozzi et al., J. Phys.:Condens. Matter 21 395502 (2009);
          URL http://www.quantum-espresso.org", 
     in publications or presentations arising from this work. More details at
     http://www.quantum-espresso.org/quote

     Parallel version (MPI), running on     4 processors
     R & G space division:  proc/nbgrp/npool/nimage =       4
     Waiting for input...
     Reading input from standard input

     Current dimensions of program PWSCF are:
     Max number of different atomic species (ntypx) = 10
     Max number of k-points (npk) =  40000
     Max angular momentum in pseudopotentials (lmaxx) =  3

     Subspace diagonalization in iterative solution of the eigenvalue problem:
     a serial algorithm will be used


     Parallelization info
     --------------------
     sticks:   dense  smooth     PW     G-vecs:    dense   smooth      PW
     Min         540     267     84                16574     5851    1003
     Max         541     268     85                16577     5855    1005
     Sum        2161    1069    337                66299    23409    4015



     bravais-lattice index     =            2
     lattice parameter (alat)  =      12.5200  a.u.
     unit-cell volume          =     490.6288 (a.u.)^3
     number of atoms/cell      =            2
     number of atomic types    =            1
     number of electrons       =        28.00
     number of Kohn-Sham states=           14
     kinetic-energy cutoff     =      50.0000  Ry
     charge density cutoff     =     400.0000  Ry
     convergence threshold     =      1.0E-10
     mixing beta               =       0.7000
     number of iterations used =            8  plain     mixing
     Exchange-correlation      =  SLA  PW   PBX  PBC ( 1  4  3  4 0 0)
     nstep                     =           50


     celldm(1)=  12.520000  celldm(2)=   0.000000  celldm(3)=   0.000000
     celldm(4)=   0.000000  celldm(5)=   0.000000  celldm(6)=   0.000000

     crystal axes: (cart. coord. in units of alat)
               a(1) = (  -0.500000   0.000000   0.500000 )  
               a(2) = (   0.000000   0.500000   0.500000 )  
               a(3) = (  -0.500000   0.500000   0.000000 )  

     reciprocal axes: (cart. coord. in units 2 pi/alat)
               b(1) = ( -1.000000 -1.000000  1.000000 )  
               b(2) = (  1.000000  1.000000  1.000000 )  
               b(3) = ( -1.000000  1.000000 -1.000000 )  


     PseudoPot. # 1 for Sn read from file:
     /home/s1333534/quantum_espresso/qe-6.1/pseudo/sn_pbe_v1.4.uspp.F.UPF
     MD5 check sum: 469debedee59599fedebd795477fea03
     Pseudo is Ultrasoft + core correction, Zval = 14.0
     Generated by new atomic code, or converted to UPF format
     Using radial grid of  891 points,  6 beta functions with: 
                l(1) =   0
                l(2) =   0
                l(3) =   1
                l(4) =   1
                l(5) =   2
                l(6) =   2
     Q(r) pseudized with  8 coefficients,  rinner =    1.350   1.350   1.350
                                                       1.350   1.350

     atomic species   valence    mass     pseudopotential
        Sn            14.00   118.71000     Sn( 1.00)

     48 Sym. Ops., with inversion, found (24 have fractional translation)



   Cartesian axes

     site n.     atom                  positions (alat units)
         1           Sn  tau(   1) = (   0.0000000   0.0000000   0.0000000  )
         2           Sn  tau(   2) = (  -0.2500000   0.2500000   0.2500000  )

     number of k points=   408

     Number of k-points >= 100: set verbosity='high' to print them.

     Dense  grid:    66299 G-vectors     FFT dimensions: (  60,  60,  60)

     Smooth grid:    23409 G-vectors     FFT dimensions: (  40,  40,  40)

     Estimated max dynamical RAM per process >      75.98MB

     Estimated total allocated dynamical RAM >     303.91MB

     Initial potential from superposition of free atoms

     starting charge   25.99991, renormalised to   28.00000
     Starting wfc are   18 randomized atomic wfcs

     total cpu time spent up to now is        6.9 secs

     per-process dynamical memory:    86.2 Mb

     Self-consistent Calculation

     iteration #  1     ecut=    50.00 Ry     beta=0.70
     Davidson diagonalization with overlap
     ethr =  1.00E-02,  avg # of iterations =  2.7

     total cpu time spent up to now is       22.6 secs

     total energy              =    -317.48646758 Ry
     Harris-Foulkes estimate   =    -319.54657434 Ry
     estimated scf accuracy    <       2.51010020 Ry

     iteration #  2     ecut=    50.00 Ry     beta=0.70
     Davidson diagonalization with overlap
     ethr =  8.96E-03,  avg # of iterations =  3.0

     total cpu time spent up to now is       40.0 secs

     total energy              =    -318.39382209 Ry
     Harris-Foulkes estimate   =    -318.71180304 Ry
     estimated scf accuracy    <       0.47361831 Ry

     iteration #  3     ecut=    50.00 Ry     beta=0.70
     Davidson diagonalization with overlap
     ethr =  1.69E-03,  avg # of iterations =  2.0

     total cpu time spent up to now is       55.0 secs

     total energy              =    -318.48881390 Ry
     Harris-Foulkes estimate   =    -318.49038484 Ry
     estimated scf accuracy    <       0.00287889 Ry

     iteration #  4     ecut=    50.00 Ry     beta=0.70
     Davidson diagonalization with overlap
     ethr =  1.03E-05,  avg # of iterations =  2.9

     total cpu time spent up to now is       70.9 secs

     total energy              =    -318.48970091 Ry
     Harris-Foulkes estimate   =    -318.48981836 Ry
     estimated scf accuracy    <       0.00017408 Ry

     iteration #  5     ecut=    50.00 Ry     beta=0.70
     Davidson diagonalization with overlap
     ethr =  6.22E-07,  avg # of iterations =  3.0

     total cpu time spent up to now is       87.1 secs

     total energy              =    -318.48975417 Ry
     Harris-Foulkes estimate   =    -318.48975487 Ry
     estimated scf accuracy    <       0.00000147 Ry

     iteration #  6     ecut=    50.00 Ry     beta=0.70
     Davidson diagonalization with overlap
     ethr =  5.25E-09,  avg # of iterations =  3.9

     total cpu time spent up to now is      104.6 secs

     total energy              =    -318.48975494 Ry
     Harris-Foulkes estimate   =    -318.48975498 Ry
     estimated scf accuracy    <       0.00000008 Ry

     iteration #  7     ecut=    50.00 Ry     beta=0.70
     Davidson diagonalization with overlap
     ethr =  2.71E-10,  avg # of iterations =  3.1

     total cpu time spent up to now is      121.2 secs

     total energy              =    -318.48975497 Ry
     Harris-Foulkes estimate   =    -318.48975497 Ry
     estimated scf accuracy    <          2.4E-09 Ry

     iteration #  8     ecut=    50.00 Ry     beta=0.70
     Davidson diagonalization with overlap
     ethr =  8.71E-12,  avg # of iterations =  3.3

     total cpu time spent up to now is      135.3 secs

     End of self-consistent calculation

     Number of k-points >= 100: set verbosity='high' to print the bands.

     highest occupied level (ev):     7.1484

!    total energy              =    -318.48975497 Ry
     Harris-Foulkes estimate   =    -318.48975497 Ry
     estimated scf accuracy    <          7.0E-11 Ry

     The total energy is the sum of the following terms:

     one-electron contribution =    -161.00683893 Ry
     hartree contribution      =      97.15130552 Ry
     xc contribution           =     -85.97409110 Ry
     ewald contribution        =    -168.66013046 Ry

     convergence has been achieved in   8 iterations

     Forces acting on atoms (cartesian axes, Ry/au):

     atom    1 type  1   force =     0.00000000    0.00000000    0.00000000
     atom    2 type  1   force =     0.00000000    0.00000000    0.00000000

     Total force =     0.000000     Total SCF correction =     0.000000


     Computing stress (Cartesian axis) and pressure

          total   stress  (Ry/bohr**3)                   (kbar)     P=  -13.21
  -0.00008978   0.00000000  -0.00000000        -13.21      0.00     -0.00
   0.00000000  -0.00008978   0.00000000          0.00    -13.21      0.00
  -0.00000000   0.00000000  -0.00008978         -0.00      0.00    -13.21


     BFGS Geometry Optimization

     number of scf cycles    =   1
     number of bfgs steps    =   0

     enthalpy new            =    -318.4897549682 Ry

     new trust radius        =       0.0099431696 bohr
     new conv_thr            =            1.0E-10 Ry

     new unit-cell volume =    487.33252 a.u.^3 (    72.21523 Ang^3 )
     density =      5.45931 g/cm^3

CELL_PARAMETERS (alat= 12.52000000)
  -0.498877753   0.000000000   0.498877753
  -0.000000000   0.498877753   0.498877753
  -0.498877753   0.498877753   0.000000000

ATOMIC_POSITIONS (crystal)
Sn       0.000000000   0.000000000   0.000000000
Sn       0.250000000   0.250000000   0.250000000



     Writing output data file sn.alpha.relax.save
     NEW-OLD atomic charge density approx. for the potential
     extrapolated charge   27.82414, renormalised to   28.00000

     total cpu time spent up to now is      142.9 secs

     per-process dynamical memory:    95.1 Mb

     Self-consistent Calculation

     iteration #  1     ecut=    50.00 Ry     beta=0.70
     Davidson diagonalization with overlap
     ethr =  1.00E-06,  avg # of iterations =  4.2

     total cpu time spent up to now is      163.9 secs

     total energy              =    -318.48254050 Ry
     Harris-Foulkes estimate   =    -319.37547876 Ry
     estimated scf accuracy    <       0.00484726 Ry

     iteration #  2     ecut=    50.00 Ry     beta=0.70
     Davidson diagonalization with overlap
     ethr =  1.73E-05,  avg # of iterations =  3.8

     total cpu time spent up to now is      183.7 secs

     total energy              =    -318.48987154 Ry
     Harris-Foulkes estimate   =    -318.49347133 Ry
     estimated scf accuracy    <       0.00757170 Ry

     iteration #  3     ecut=    50.00 Ry     beta=0.70
     Davidson diagonalization with overlap
     ethr =  1.73E-05,  avg # of iterations =  2.0

     total cpu time spent up to now is      197.8 secs

     total energy              =    -318.49025038 Ry
     Harris-Foulkes estimate   =    -318.49051221 Ry
     estimated scf accuracy    <       0.00119555 Ry

     iteration #  4     ecut=    50.00 Ry     beta=0.70
     Davidson diagonalization with overlap
     ethr =  4.27E-06,  avg # of iterations =  1.9

     total cpu time spent up to now is      209.4 secs

     total energy              =    -318.48998974 Ry
     Harris-Foulkes estimate   =    -318.49028593 Ry
     estimated scf accuracy    <       0.00064374 Ry

     iteration #  5     ecut=    50.00 Ry     beta=0.70
     Davidson diagonalization with overlap
     ethr =  2.30E-06,  avg # of iterations =  1.9

     total cpu time spent up to now is      221.0 secs

     total energy              =    -318.49001673 Ry
     Harris-Foulkes estimate   =    -318.49004215 Ry
     estimated scf accuracy    <       0.00011616 Ry

     iteration #  6     ecut=    50.00 Ry     beta=0.70
     Davidson diagonalization with overlap
     ethr =  4.15E-07,  avg # of iterations =  2.1

     total cpu time spent up to now is      235.6 secs

     total energy              =    -318.49000143 Ry
     Harris-Foulkes estimate   =    -318.49003846 Ry
     estimated scf accuracy    <       0.00004543 Ry

     iteration #  7     ecut=    50.00 Ry     beta=0.70
     Davidson diagonalization with overlap
     ethr =  1.62E-07,  avg # of iterations =  3.1

     total cpu time spent up to now is      252.7 secs

     total energy              =    -318.49002016 Ry
     Harris-Foulkes estimate   =    -318.49002478 Ry
     estimated scf accuracy    <       0.00001175 Ry

     iteration #  8     ecut=    50.00 Ry     beta=0.70
     Davidson diagonalization with overlap
     ethr =  4.20E-08,  avg # of iterations =  1.2

     total cpu time spent up to now is      263.7 secs

     total energy              =    -318.49001919 Ry
     Harris-Foulkes estimate   =    -318.49002080 Ry
     estimated scf accuracy    <       0.00000354 Ry

     iteration #  9     ecut=    50.00 Ry     beta=0.70
     Davidson diagonalization with overlap
     ethr =  1.26E-08,  avg # of iterations =  2.0

     total cpu time spent up to now is      276.5 secs

     total energy              =    -318.49001926 Ry
     Harris-Foulkes estimate   =    -318.49001963 Ry
     estimated scf accuracy    <       0.00000047 Ry

     iteration # 10     ecut=    50.00 Ry     beta=0.70
     Davidson diagonalization with overlap
     ethr =  1.69E-09,  avg # of iterations =  3.1

     total cpu time spent up to now is      294.1 secs

     total energy              =    -318.49001951 Ry
     Harris-Foulkes estimate   =    -318.49001957 Ry
     estimated scf accuracy    <       0.00000008 Ry

     iteration # 11     ecut=    50.00 Ry     beta=0.70
     Davidson diagonalization with overlap
     ethr =  2.72E-10,  avg # of iterations =  2.2

     total cpu time spent up to now is      309.2 secs

     total energy              =    -318.49001954 Ry
     Harris-Foulkes estimate   =    -318.49001954 Ry
     estimated scf accuracy    <          9.3E-09 Ry

     iteration # 12     ecut=    50.00 Ry     beta=0.70
     Davidson diagonalization with overlap
     ethr =  3.31E-11,  avg # of iterations =  1.8

     total cpu time spent up to now is      320.7 secs

     total energy              =    -318.49001959 Ry
     Harris-Foulkes estimate   =    -318.49001954 Ry
     estimated scf accuracy    <          4.5E-09 Ry

     iteration # 13     ecut=    50.00 Ry     beta=0.70
     Davidson diagonalization with overlap
     ethr =  1.61E-11,  avg # of iterations =  4.6

     total cpu time spent up to now is      341.9 secs

     total energy              =    -318.49001953 Ry
     Harris-Foulkes estimate   =    -318.49001965 Ry
     estimated scf accuracy    <       0.00000033 Ry

     iteration # 14     ecut=    50.00 Ry     beta=0.70
     Davidson diagonalization with overlap
     ethr =  1.61E-11,  avg # of iterations =  4.2

     total cpu time spent up to now is      362.7 secs

     total energy              =    -318.49001954 Ry
     Harris-Foulkes estimate   =    -318.49001955 Ry
     estimated scf accuracy    <       0.00000003 Ry

     iteration # 15     ecut=    50.00 Ry     beta=0.70
     Davidson diagonalization with overlap
     ethr =  1.61E-11,  avg # of iterations =  3.4

     total cpu time spent up to now is      381.2 secs

     total energy              =    -318.49001954 Ry
     Harris-Foulkes estimate   =    -318.49001954 Ry
     estimated scf accuracy    <          2.7E-10 Ry

     iteration # 16     ecut=    50.00 Ry     beta=0.70
     Davidson diagonalization with overlap
     ethr =  9.69E-13,  avg # of iterations =  3.3

     total cpu time spent up to now is      399.6 secs

     total energy              =    -318.49001954 Ry
     Harris-Foulkes estimate   =    -318.49001954 Ry
     estimated scf accuracy    <          6.5E-10 Ry

     iteration # 17     ecut=    50.00 Ry     beta=0.70
     Davidson diagonalization with overlap
     ethr =  9.69E-13,  avg # of iterations =  3.2

     total cpu time spent up to now is      417.8 secs

     total energy              =    -318.49001954 Ry
     Harris-Foulkes estimate   =    -318.49001954 Ry
     estimated scf accuracy    <          1.6E-10 Ry

     iteration # 18     ecut=    50.00 Ry     beta=0.70
     Davidson diagonalization with overlap
     ethr =  5.88E-13,  avg # of iterations =  2.0

     total cpu time spent up to now is      430.1 secs

     End of self-consistent calculation

     Number of k-points >= 100: set verbosity='high' to print the bands.

     highest occupied level (ev):     7.2287

!    total energy              =    -318.49001954 Ry
     Harris-Foulkes estimate   =    -318.49001954 Ry
     estimated scf accuracy    <          4.9E-12 Ry

     The total energy is the sum of the following terms:

     one-electron contribution =    -160.38727190 Ry
     hartree contribution      =      96.91715151 Ry
     xc contribution           =     -85.98036055 Ry
     ewald contribution        =    -169.03953861 Ry

     convergence has been achieved in  18 iterations

     Forces acting on atoms (cartesian axes, Ry/au):

     atom    1 type  1   force =    -0.00000000   -0.00000000    0.00000000
     atom    2 type  1   force =     0.00000000    0.00000000   -0.00000000

     Total force =     0.000000     Total SCF correction =     0.000000


     Computing stress (Cartesian axis) and pressure

          total   stress  (Ry/bohr**3)                   (kbar)     P=  -10.48
  -0.00007124  -0.00000000  -0.00000000        -10.48     -0.00     -0.00
  -0.00000000  -0.00007124   0.00000000         -0.00    -10.48      0.00
  -0.00000000   0.00000000  -0.00007124         -0.00      0.00    -10.48


     number of scf cycles    =   2
     number of bfgs steps    =   1

     enthalpy old            =    -318.4897549682 Ry
     enthalpy new            =    -318.4900195413 Ry

     CASE: enthalpy_new < enthalpy_old

     new trust radius        =       0.0148980069 bohr
     new conv_thr            =            1.0E-12 Ry

     new unit-cell volume =    482.41591 a.u.^3 (    71.48666 Ang^3 )
     density =      5.51495 g/cm^3

CELL_PARAMETERS (alat= 12.52000000)
  -0.497194383   0.000000000   0.497194383
  -0.000000000   0.497194383   0.497194383
  -0.497194383   0.497194383   0.000000000

ATOMIC_POSITIONS (crystal)
Sn       0.000000000  -0.000000000  -0.000000000
Sn       0.250000000   0.250000000   0.250000000



     Writing output data file sn.alpha.relax.save
     NEW-OLD atomic charge density approx. for the potential
     extrapolated charge   27.73502, renormalised to   28.00000

     total cpu time spent up to now is      437.7 secs

     per-process dynamical memory:    97.4 Mb

     Self-consistent Calculation

     iteration #  1     ecut=    50.00 Ry     beta=0.70
     Davidson diagonalization with overlap
     ethr =  1.00E-06,  avg # of iterations =  4.5

     total cpu time spent up to now is      458.8 secs

     total energy              =    -318.47348671 Ry
     Harris-Foulkes estimate   =    -319.81773368 Ry
     estimated scf accuracy    <       0.01091846 Ry

     iteration #  2     ecut=    50.00 Ry     beta=0.70
     Davidson diagonalization with overlap
     ethr =  3.90E-05,  avg # of iterations =  3.8

     total cpu time spent up to now is      478.7 secs

     total energy              =    -318.48994509 Ry
     Harris-Foulkes estimate   =    -318.49804144 Ry
     estimated scf accuracy    <       0.01703119 Ry

     iteration #  3     ecut=    50.00 Ry     beta=0.70
     Davidson diagonalization with overlap
     ethr =  3.90E-05,  avg # of iterations =  2.0

     total cpu time spent up to now is      492.7 secs

     total energy              =    -318.49082485 Ry
     Harris-Foulkes estimate   =    -318.49139276 Ry
     estimated scf accuracy    <       0.00267346 Ry

     iteration #  4     ecut=    50.00 Ry     beta=0.70
     Davidson diagonalization with overlap
     ethr =  9.55E-06,  avg # of iterations =  1.9

     total cpu time spent up to now is      504.8 secs

     total energy              =    -318.49021434 Ry
     Harris-Foulkes estimate   =    -318.49090520 Ry
     estimated scf accuracy    <       0.00146426 Ry

     iteration #  5     ecut=    50.00 Ry     beta=0.70
     Davidson diagonalization with overlap
     ethr =  5.23E-06,  avg # of iterations =  2.0

     total cpu time spent up to now is      516.9 secs

     total energy              =    -318.49029825 Ry
     Harris-Foulkes estimate   =    -318.49034105 Ry
     estimated scf accuracy    <       0.00024152 Ry

     iteration #  6     ecut=    50.00 Ry     beta=0.70
     Davidson diagonalization with overlap
     ethr =  8.63E-07,  avg # of iterations =  2.1

     total cpu time spent up to now is      531.5 secs

     total energy              =    -318.49025495 Ry
     Harris-Foulkes estimate   =    -318.49034414 Ry
     estimated scf accuracy    <       0.00010983 Ry

     iteration #  7     ecut=    50.00 Ry     beta=0.70
     Davidson diagonalization with overlap
     ethr =  3.92E-07,  avg # of iterations =  3.1

     total cpu time spent up to now is      548.6 secs

     total energy              =    -318.49029853 Ry
     Harris-Foulkes estimate   =    -318.49031054 Ry
     estimated scf accuracy    <       0.00002730 Ry

     iteration #  8     ecut=    50.00 Ry     beta=0.70
     Davidson diagonalization with overlap
     ethr =  9.75E-08,  avg # of iterations =  1.6

     total cpu time spent up to now is      560.0 secs

     total energy              =    -318.49029831 Ry
     Harris-Foulkes estimate   =    -318.49030043 Ry
     estimated scf accuracy    <       0.00000656 Ry

     iteration #  9     ecut=    50.00 Ry     beta=0.70
     Davidson diagonalization with overlap
     ethr =  2.34E-08,  avg # of iterations =  1.9

     total cpu time spent up to now is      572.2 secs

     total energy              =    -318.49029767 Ry
     Harris-Foulkes estimate   =    -318.49029887 Ry
     estimated scf accuracy    <       0.00000169 Ry

     iteration # 10     ecut=    50.00 Ry     beta=0.70
     Davidson diagonalization with overlap
     ethr =  6.03E-09,  avg # of iterations =  3.0

     total cpu time spent up to now is      590.3 secs

     total energy              =    -318.49029838 Ry
     Harris-Foulkes estimate   =    -318.49029841 Ry
     estimated scf accuracy    <       0.00000005 Ry

     iteration # 11     ecut=    50.00 Ry     beta=0.70
     Davidson diagonalization with overlap
     ethr =  1.96E-10,  avg # of iterations =  3.0

     total cpu time spent up to now is      606.4 secs

     total energy              =    -318.49029840 Ry
     Harris-Foulkes estimate   =    -318.49029840 Ry
     estimated scf accuracy    <       0.00000004 Ry

     iteration # 12     ecut=    50.00 Ry     beta=0.70
     Davidson diagonalization with overlap
     ethr =  1.40E-10,  avg # of iterations =  1.0

     total cpu time spent up to now is      617.2 secs

     total energy              =    -318.49029839 Ry
     Harris-Foulkes estimate   =    -318.49029840 Ry
     estimated scf accuracy    <       0.00000005 Ry

     iteration # 13     ecut=    50.00 Ry     beta=0.70
     Davidson diagonalization with overlap
     ethr =  1.40E-10,  avg # of iterations =  2.0

     total cpu time spent up to now is      633.4 secs

     total energy              =    -318.49029840 Ry
     Harris-Foulkes estimate   =    -318.49029840 Ry
     estimated scf accuracy    <          9.9E-09 Ry

     iteration # 14     ecut=    50.00 Ry     beta=0.70
     Davidson diagonalization with overlap
     ethr =  3.52E-11,  avg # of iterations =  2.0

     total cpu time spent up to now is      648.3 secs

     total energy              =    -318.49029844 Ry
     Harris-Foulkes estimate   =    -318.49029841 Ry
     estimated scf accuracy    <       0.00000004 Ry

     iteration # 15     ecut=    50.00 Ry     beta=0.70
     Davidson diagonalization with overlap
     ethr =  3.52E-11,  avg # of iterations =  3.0

     total cpu time spent up to now is      664.1 secs

     total energy              =    -318.49029841 Ry
     Harris-Foulkes estimate   =    -318.49029845 Ry
     estimated scf accuracy    <       0.00000027 Ry

     iteration # 16     ecut=    50.00 Ry     beta=0.70
     Davidson diagonalization with overlap
     ethr =  3.52E-11,  avg # of iterations =  2.0

     total cpu time spent up to now is      679.0 secs

     total energy              =    -318.49029839 Ry
     Harris-Foulkes estimate   =    -318.49029841 Ry
     estimated scf accuracy    <       0.00000008 Ry

     iteration # 17     ecut=    50.00 Ry     beta=0.70
     Davidson diagonalization with overlap
     ethr =  3.52E-11,  avg # of iterations =  2.8

     total cpu time spent up to now is      694.6 secs

     total energy              =    -318.49029840 Ry
     Harris-Foulkes estimate   =    -318.49029840 Ry
     estimated scf accuracy    <          5.9E-10 Ry

     iteration # 18     ecut=    50.00 Ry     beta=0.70
     Davidson diagonalization with overlap
     ethr =  2.12E-12,  avg # of iterations =  2.4

     total cpu time spent up to now is      709.4 secs

     total energy              =    -318.49029840 Ry
     Harris-Foulkes estimate   =    -318.49029840 Ry
     estimated scf accuracy    <          3.6E-11 Ry

     iteration # 19     ecut=    50.00 Ry     beta=0.70
     Davidson diagonalization with overlap
     ethr =  1.28E-13,  avg # of iterations =  2.5

     total cpu time spent up to now is      722.2 secs

     End of self-consistent calculation

     Number of k-points >= 100: set verbosity='high' to print the bands.

     highest occupied level (ev):     7.3507

!    total energy              =    -318.49029840 Ry
     Harris-Foulkes estimate   =    -318.49029840 Ry
     estimated scf accuracy    <          8.6E-13 Ry

     The total energy is the sum of the following terms:

     one-electron contribution =    -159.45327650 Ry
     hartree contribution      =      96.56472167 Ry
     xc contribution           =     -85.98988129 Ry
     ewald contribution        =    -169.61186227 Ry

     convergence has been achieved in  19 iterations

     Forces acting on atoms (cartesian axes, Ry/au):

     atom    1 type  1   force =    -0.00000000   -0.00000000    0.00000000
     atom    2 type  1   force =     0.00000000    0.00000000   -0.00000000

     Total force =     0.000000     Total SCF correction =     0.000000


     Computing stress (Cartesian axis) and pressure

          total   stress  (Ry/bohr**3)                   (kbar)     P=   -6.19
  -0.00004211  -0.00000000  -0.00000000         -6.19     -0.00     -0.00
  -0.00000000  -0.00004211   0.00000000         -0.00     -6.19      0.00
  -0.00000000   0.00000000  -0.00004211         -0.00      0.00     -6.19


     number of scf cycles    =   3
     number of bfgs steps    =   2

     enthalpy old            =    -318.4900195413 Ry
     enthalpy new            =    -318.4902983976 Ry

     CASE: enthalpy_new < enthalpy_old

     new trust radius        =       0.0211479225 bohr
     new conv_thr            =            1.0E-12 Ry

     new unit-cell volume =    475.48202 a.u.^3 (    70.45916 Ang^3 )
     density =      5.59537 g/cm^3

CELL_PARAMETERS (alat= 12.52000000)
  -0.494800775   0.000000000   0.494800775
  -0.000000000   0.494800775   0.494800775
  -0.494800775   0.494800775   0.000000000

ATOMIC_POSITIONS (crystal)
Sn       0.000000000  -0.000000000  -0.000000000
Sn       0.250000000   0.250000000   0.250000000



     Writing output data file sn.alpha.relax.save
     NEW-OLD atomic charge density approx. for the potential
     extrapolated charge   27.62085, renormalised to   28.00000

     total cpu time spent up to now is      729.8 secs

     per-process dynamical memory:    97.4 Mb

     Self-consistent Calculation

     iteration #  1     ecut=    50.00 Ry     beta=0.70
     Davidson diagonalization with overlap
     ethr =  1.00E-06,  avg # of iterations =  5.2

     total cpu time spent up to now is      751.7 secs

     total energy              =    -318.45646150 Ry
     Harris-Foulkes estimate   =    -320.37595732 Ry
     estimated scf accuracy    <       0.02212846 Ry

     iteration #  2     ecut=    50.00 Ry     beta=0.70
     Davidson diagonalization with overlap
     ethr =  7.90E-05,  avg # of iterations =  3.8

     total cpu time spent up to now is      771.9 secs

     total energy              =    -318.48967029 Ry
     Harris-Foulkes estimate   =    -318.50604709 Ry
     estimated scf accuracy    <       0.03445254 Ry

     iteration #  3     ecut=    50.00 Ry     beta=0.70
     Davidson diagonalization with overlap
     ethr =  7.90E-05,  avg # of iterations =  2.0

     total cpu time spent up to now is      785.8 secs

     total energy              =    -318.49151716 Ry
     Harris-Foulkes estimate   =    -318.49261989 Ry
     estimated scf accuracy    <       0.00535417 Ry

     iteration #  4     ecut=    50.00 Ry     beta=0.70
     Davidson diagonalization with overlap
     ethr =  1.91E-05,  avg # of iterations =  1.9

     total cpu time spent up to now is      797.4 secs

     total energy              =    -318.49025421 Ry
     Harris-Foulkes estimate   =    -318.49167706 Ry
     estimated scf accuracy    <       0.00298840 Ry

     iteration #  5     ecut=    50.00 Ry     beta=0.70
     Davidson diagonalization with overlap
     ethr =  1.07E-05,  avg # of iterations =  2.0

     total cpu time spent up to now is      809.1 secs

     total energy              =    -318.49044297 Ry
     Harris-Foulkes estimate   =    -318.49051864 Ry
     estimated scf accuracy    <       0.00047621 Ry

     iteration #  6     ecut=    50.00 Ry     beta=0.70
     Davidson diagonalization with overlap
     ethr =  1.70E-06,  avg # of iterations =  2.1

     total cpu time spent up to now is      823.4 secs

     total energy              =    -318.49034837 Ry
     Harris-Foulkes estimate   =    -318.49053399 Ry
     estimated scf accuracy    <       0.00022887 Ry

     iteration #  7     ecut=    50.00 Ry     beta=0.70
     Davidson diagonalization with overlap
     ethr =  8.17E-07,  avg # of iterations =  3.1

     total cpu time spent up to now is      840.2 secs

     total energy              =    -318.49044083 Ry
     Harris-Foulkes estimate   =    -318.49046254 Ry
     estimated scf accuracy    <       0.00005477 Ry

     iteration #  8     ecut=    50.00 Ry     beta=0.70
     Davidson diagonalization with overlap
     ethr =  1.96E-07,  avg # of iterations =  1.4

     total cpu time spent up to now is      851.4 secs

     total energy              =    -318.49043763 Ry
     Harris-Foulkes estimate   =    -318.49044393 Ry
     estimated scf accuracy    <       0.00001645 Ry

     iteration #  9     ecut=    50.00 Ry     beta=0.70
     Davidson diagonalization with overlap
     ethr =  5.88E-08,  avg # of iterations =  1.8

     total cpu time spent up to now is      862.9 secs

     total energy              =    -318.49043629 Ry
     Harris-Foulkes estimate   =    -318.49043895 Ry
     estimated scf accuracy    <       0.00000365 Ry

     iteration # 10     ecut=    50.00 Ry     beta=0.70
     Davidson diagonalization with overlap
     ethr =  1.30E-08,  avg # of iterations =  3.1

     total cpu time spent up to now is      881.0 secs

     total energy              =    -318.49043810 Ry
     Harris-Foulkes estimate   =    -318.49043832 Ry
     estimated scf accuracy    <       0.00000028 Ry

     iteration # 11     ecut=    50.00 Ry     beta=0.70
     Davidson diagonalization with overlap
     ethr =  1.02E-09,  avg # of iterations =  3.0

     total cpu time spent up to now is      897.5 secs

     total energy              =    -318.49043819 Ry
     Harris-Foulkes estimate   =    -318.49043824 Ry
     estimated scf accuracy    <       0.00000012 Ry

     iteration # 12     ecut=    50.00 Ry     beta=0.70
     Davidson diagonalization with overlap
     ethr =  4.43E-10,  avg # of iterations =  2.0

     total cpu time spent up to now is      912.3 secs

     total energy              =    -318.49043822 Ry
     Harris-Foulkes estimate   =    -318.49043821 Ry
     estimated scf accuracy    <          8.5E-09 Ry

     iteration # 13     ecut=    50.00 Ry     beta=0.70
     Davidson diagonalization with overlap
     ethr =  3.03E-11,  avg # of iterations =  2.8

     total cpu time spent up to now is      927.9 secs

     total energy              =    -318.49043822 Ry
     Harris-Foulkes estimate   =    -318.49043822 Ry
     estimated scf accuracy    <       0.00000002 Ry

     iteration # 14     ecut=    50.00 Ry     beta=0.70
     Davidson diagonalization with overlap
     ethr =  3.03E-11,  avg # of iterations =  1.0

     total cpu time spent up to now is      938.7 secs

     total energy              =    -318.49043822 Ry
     Harris-Foulkes estimate   =    -318.49043822 Ry
     estimated scf accuracy    <       0.00000002 Ry

     iteration # 15     ecut=    50.00 Ry     beta=0.70
     Davidson diagonalization with overlap
     ethr =  3.03E-11,  avg # of iterations =  1.0

     total cpu time spent up to now is      949.5 secs

     total energy              =    -318.49043822 Ry
     Harris-Foulkes estimate   =    -318.49043822 Ry
     estimated scf accuracy    <       0.00000002 Ry

     iteration # 16     ecut=    50.00 Ry     beta=0.70
     Davidson diagonalization with overlap
     ethr =  3.03E-11,  avg # of iterations =  1.0

     total cpu time spent up to now is      960.3 secs

     total energy              =    -318.49043822 Ry
     Harris-Foulkes estimate   =    -318.49043822 Ry
     estimated scf accuracy    <       0.00000002 Ry

     iteration # 17     ecut=    50.00 Ry     beta=0.70
     Davidson diagonalization with overlap
     ethr =  3.03E-11,  avg # of iterations =  1.0

     total cpu time spent up to now is      971.1 secs

     total energy              =    -318.49043822 Ry
     Harris-Foulkes estimate   =    -318.49043822 Ry
     estimated scf accuracy    <       0.00000002 Ry

     iteration # 18     ecut=    50.00 Ry     beta=0.70
     Davidson diagonalization with overlap
     ethr =  3.03E-11,  avg # of iterations =  1.0

     total cpu time spent up to now is      981.9 secs

     total energy              =    -318.49043821 Ry
     Harris-Foulkes estimate   =    -318.49043822 Ry
     estimated scf accuracy    <       0.00000002 Ry

     iteration # 19     ecut=    50.00 Ry     beta=0.70
     Davidson diagonalization with overlap
     ethr =  3.03E-11,  avg # of iterations =  3.1

     total cpu time spent up to now is      998.1 secs

     total energy              =    -318.49043821 Ry
     Harris-Foulkes estimate   =    -318.49043821 Ry
     estimated scf accuracy    <          3.4E-10 Ry

     iteration # 20     ecut=    50.00 Ry     beta=0.70
     Davidson diagonalization with overlap
     ethr =  1.22E-12,  avg # of iterations =  2.1

     total cpu time spent up to now is     1010.1 secs

     total energy              =    -318.49043821 Ry
     Harris-Foulkes estimate   =    -318.49043821 Ry
     estimated scf accuracy    <          1.8E-10 Ry

     iteration # 21     ecut=    50.00 Ry     beta=0.70
     Davidson diagonalization with overlap
     ethr =  6.52E-13,  avg # of iterations =  1.9

     total cpu time spent up to now is     1021.7 secs

     total energy              =    -318.49043821 Ry
     Harris-Foulkes estimate   =    -318.49043821 Ry
     estimated scf accuracy    <          5.0E-11 Ry

     iteration # 22     ecut=    50.00 Ry     beta=0.70
     Davidson diagonalization with overlap
     ethr =  1.80E-13,  avg # of iterations =  1.0

     total cpu time spent up to now is     1032.5 secs

     total energy              =    -318.49043821 Ry
     Harris-Foulkes estimate   =    -318.49043821 Ry
     estimated scf accuracy    <          4.3E-11 Ry

     iteration # 23     ecut=    50.00 Ry     beta=0.70
     Davidson diagonalization with overlap
     ethr =  1.52E-13,  avg # of iterations =  2.1

     total cpu time spent up to now is     1044.8 secs

     total energy              =    -318.49043821 Ry
     Harris-Foulkes estimate   =    -318.49043821 Ry
     estimated scf accuracy    <          1.1E-11 Ry

     iteration # 24     ecut=    50.00 Ry     beta=0.70
     Davidson diagonalization with overlap
     ethr =  1.00E-13,  avg # of iterations =  2.0

     total cpu time spent up to now is     1057.1 secs

     total energy              =    -318.49043821 Ry
     Harris-Foulkes estimate   =    -318.49043821 Ry
     estimated scf accuracy    <          1.2E-12 Ry

     iteration # 25     ecut=    50.00 Ry     beta=0.70
     Davidson diagonalization with overlap
     ethr =  1.00E-13,  avg # of iterations =  1.0

     total cpu time spent up to now is     1067.8 secs

     End of self-consistent calculation

     Number of k-points >= 100: set verbosity='high' to print the bands.

     highest occupied level (ev):     7.5272

!    total energy              =    -318.49043821 Ry
     Harris-Foulkes estimate   =    -318.49043821 Ry
     estimated scf accuracy    <          2.4E-13 Ry

     The total energy is the sum of the following terms:

     one-electron contribution =    -158.11549542 Ry
     hartree contribution      =      96.06109031 Ry
     xc contribution           =     -86.00367009 Ry
     ewald contribution        =    -170.43236301 Ry

     convergence has been achieved in  25 iterations

     Forces acting on atoms (cartesian axes, Ry/au):

     atom    1 type  1   force =     0.00000000    0.00000000    0.00000000
     atom    2 type  1   force =     0.00000000    0.00000000   -0.00000000

     Total force =     0.000000     Total SCF correction =     0.000000


     Computing stress (Cartesian axis) and pressure

          total   stress  (Ry/bohr**3)                   (kbar)     P=    0.35
   0.00000240   0.00000000   0.00000000          0.35      0.00      0.00
   0.00000000   0.00000240  -0.00000000          0.00      0.35     -0.00
   0.00000000  -0.00000000   0.00000240          0.00     -0.00      0.35


     number of scf cycles    =   4
     number of bfgs steps    =   3

     enthalpy old            =    -318.4902983976 Ry
     enthalpy new            =    -318.4904382132 Ry

     CASE: enthalpy_new < enthalpy_old

     new trust radius        =       0.0011269527 bohr
     new conv_thr            =            1.0E-12 Ry

     new unit-cell volume =    475.85072 a.u.^3 (    70.51380 Ang^3 )
     density =      5.59104 g/cm^3

CELL_PARAMETERS (alat= 12.52000000)
  -0.494928636   0.000000000   0.494928636
  -0.000000000   0.494928636   0.494928636
  -0.494928636   0.494928636   0.000000000

ATOMIC_POSITIONS (crystal)
Sn       0.000000000  -0.000000000  -0.000000000
Sn       0.250000000   0.250000000   0.250000000



     Writing output data file sn.alpha.relax.save
     NEW-OLD atomic charge density approx. for the potential
     extrapolated charge   28.02015, renormalised to   28.00000

     total cpu time spent up to now is     1075.6 secs

     per-process dynamical memory:    97.4 Mb

     Self-consistent Calculation

     iteration #  1     ecut=    50.00 Ry     beta=0.70
     Davidson diagonalization with overlap
     ethr =  1.00E-06,  avg # of iterations =  2.0

     total cpu time spent up to now is     1090.6 secs

     total energy              =    -318.49034246 Ry
     Harris-Foulkes estimate   =    -318.39022875 Ry
     estimated scf accuracy    <       0.00006214 Ry

     iteration #  2     ecut=    50.00 Ry     beta=0.70
     Davidson diagonalization with overlap
     ethr =  2.22E-07,  avg # of iterations =  3.7

     total cpu time spent up to now is     1110.6 secs

     total energy              =    -318.49043700 Ry
     Harris-Foulkes estimate   =    -318.49048311 Ry
     estimated scf accuracy    <       0.00009709 Ry

     iteration #  3     ecut=    50.00 Ry     beta=0.70
     Davidson diagonalization with overlap
     ethr =  2.22E-07,  avg # of iterations =  2.0

     total cpu time spent up to now is     1124.8 secs

     total energy              =    -318.49044165 Ry
     Harris-Foulkes estimate   =    -318.49044511 Ry
     estimated scf accuracy    <       0.00001555 Ry

     iteration #  4     ecut=    50.00 Ry     beta=0.70
     Davidson diagonalization with overlap
     ethr =  5.55E-08,  avg # of iterations =  1.7

     total cpu time spent up to now is     1136.2 secs

     total energy              =    -318.49043834 Ry
     Harris-Foulkes estimate   =    -318.49044208 Ry
     estimated scf accuracy    <       0.00000836 Ry

     iteration #  5     ecut=    50.00 Ry     beta=0.70
     Davidson diagonalization with overlap
     ethr =  2.99E-08,  avg # of iterations =  1.8

     total cpu time spent up to now is     1147.7 secs

     total energy              =    -318.49043855 Ry
     Harris-Foulkes estimate   =    -318.49043899 Ry
     estimated scf accuracy    <       0.00000162 Ry

     iteration #  6     ecut=    50.00 Ry     beta=0.70
     Davidson diagonalization with overlap
     ethr =  5.77E-09,  avg # of iterations =  2.0

     total cpu time spent up to now is     1162.2 secs

     total energy              =    -318.49043846 Ry
     Harris-Foulkes estimate   =    -318.49043886 Ry
     estimated scf accuracy    <       0.00000049 Ry

     iteration #  7     ecut=    50.00 Ry     beta=0.70
     Davidson diagonalization with overlap
     ethr =  1.74E-09,  avg # of iterations =  3.1

     total cpu time spent up to now is     1179.8 secs

     total energy              =    -318.49043865 Ry
     Harris-Foulkes estimate   =    -318.49043875 Ry
     estimated scf accuracy    <       0.00000020 Ry

     iteration #  8     ecut=    50.00 Ry     beta=0.70
     Davidson diagonalization with overlap
     ethr =  7.25E-10,  avg # of iterations =  1.3

     total cpu time spent up to now is     1190.9 secs

     total energy              =    -318.49043864 Ry
     Harris-Foulkes estimate   =    -318.49043867 Ry
     estimated scf accuracy    <       0.00000004 Ry

     iteration #  9     ecut=    50.00 Ry     beta=0.70
     Davidson diagonalization with overlap
     ethr =  1.32E-10,  avg # of iterations =  3.0

     total cpu time spent up to now is     1209.1 secs

     total energy              =    -318.49043866 Ry
     Harris-Foulkes estimate   =    -318.49043866 Ry
     estimated scf accuracy    <          1.0E-10 Ry

     iteration # 10     ecut=    50.00 Ry     beta=0.70
     Davidson diagonalization with overlap
     ethr =  3.75E-13,  avg # of iterations =  4.0

     total cpu time spent up to now is     1229.1 secs

     total energy              =    -318.49043866 Ry
     Harris-Foulkes estimate   =    -318.49043866 Ry
     estimated scf accuracy    <          1.1E-09 Ry

     iteration # 11     ecut=    50.00 Ry     beta=0.70
     Davidson diagonalization with overlap
     ethr =  3.75E-13,  avg # of iterations =  3.8

     total cpu time spent up to now is     1248.9 secs

     total energy              =    -318.49043866 Ry
     Harris-Foulkes estimate   =    -318.49043866 Ry
     estimated scf accuracy    <          8.9E-11 Ry

     iteration # 12     ecut=    50.00 Ry     beta=0.70
     Davidson diagonalization with overlap
     ethr =  3.19E-13,  avg # of iterations =  3.0

     total cpu time spent up to now is     1265.6 secs

     total energy              =    -318.49043866 Ry
     Harris-Foulkes estimate   =    -318.49043866 Ry
     estimated scf accuracy    <          2.1E-10 Ry

     iteration # 13     ecut=    50.00 Ry     beta=0.70
     Davidson diagonalization with overlap
     ethr =  3.19E-13,  avg # of iterations =  1.0

     total cpu time spent up to now is     1276.4 secs

     total energy              =    -318.49043866 Ry
     Harris-Foulkes estimate   =    -318.49043866 Ry
     estimated scf accuracy    <          1.3E-10 Ry

     iteration # 14     ecut=    50.00 Ry     beta=0.70
     Davidson diagonalization with overlap
     ethr =  3.19E-13,  avg # of iterations =  1.0

     total cpu time spent up to now is     1287.2 secs

     total energy              =    -318.49043866 Ry
     Harris-Foulkes estimate   =    -318.49043866 Ry
     estimated scf accuracy    <          1.4E-10 Ry

     iteration # 15     ecut=    50.00 Ry     beta=0.70
     Davidson diagonalization with overlap
     ethr =  3.19E-13,  avg # of iterations =  2.2

     total cpu time spent up to now is     1300.8 secs

     total energy              =    -318.49043866 Ry
     Harris-Foulkes estimate   =    -318.49043866 Ry
     estimated scf accuracy    <          4.7E-12 Ry

     iteration # 16     ecut=    50.00 Ry     beta=0.70
     Davidson diagonalization with overlap
     ethr =  1.00E-13,  avg # of iterations =  1.0

     total cpu time spent up to now is     1311.6 secs

     total energy              =    -318.49043866 Ry
     Harris-Foulkes estimate   =    -318.49043866 Ry
     estimated scf accuracy    <          5.7E-12 Ry

     iteration # 17     ecut=    50.00 Ry     beta=0.70
     Davidson diagonalization with overlap
     ethr =  1.00E-13,  avg # of iterations =  1.0

     total cpu time spent up to now is     1322.4 secs

     End of self-consistent calculation

     Number of k-points >= 100: set verbosity='high' to print the bands.

     highest occupied level (ev):     7.5177

!    total energy              =    -318.49043866 Ry
     Harris-Foulkes estimate   =    -318.49043866 Ry
     estimated scf accuracy    <          7.3E-13 Ry

     The total energy is the sum of the following terms:

     one-electron contribution =    -158.18725593 Ry
     hartree contribution      =      96.08807871 Ry
     xc contribution           =     -86.00292841 Ry
     ewald contribution        =    -170.38833302 Ry

     convergence has been achieved in  17 iterations

     Forces acting on atoms (cartesian axes, Ry/au):

     atom    1 type  1   force =     0.00000000    0.00000000   -0.00000000
     atom    2 type  1   force =     0.00000000    0.00000000    0.00000000

     Total force =     0.000000     Total SCF correction =     0.000000


     Computing stress (Cartesian axis) and pressure

          total   stress  (Ry/bohr**3)                   (kbar)     P=    0.01
   0.00000004   0.00000000   0.00000000          0.01      0.00      0.00
   0.00000000   0.00000004  -0.00000000          0.00      0.01     -0.00
   0.00000000  -0.00000000   0.00000004          0.00     -0.00      0.01


     bfgs converged in   5 scf cycles and   4 bfgs steps
     (criteria: energy <  1.0E-04 Ry, force <  1.0E-03Ry/Bohr, cell <  3.0E-01kbar)

     End of BFGS Geometry Optimization

     Final enthalpy =    -318.4904386582 Ry
Begin final coordinates
     new unit-cell volume =    475.85072 a.u.^3 (    70.51380 Ang^3 )
     density =      5.59104 g/cm^3

CELL_PARAMETERS (alat= 12.52000000)
  -0.494928636   0.000000000   0.494928636
  -0.000000000   0.494928636   0.494928636
  -0.494928636   0.494928636   0.000000000

ATOMIC_POSITIONS (crystal)
Sn       0.000000000  -0.000000000  -0.000000000
Sn       0.250000000   0.250000000   0.250000000
End final coordinates



     A final scf calculation at the relaxed structure.
     The G-vectors are recalculated for the final unit cell
     Results may differ from those at the preceding step.

     Parallelization info
     --------------------
     sticks:   dense  smooth     PW     G-vecs:    dense   smooth      PW
     Min         526     264     78                16105     5664     958
     Max         527     265     79                16110     5665     963
     Sum        2107    1057    313                64431    22659    3839



     bravais-lattice index     =            2
     lattice parameter (alat)  =      12.5200  a.u.
     unit-cell volume          =     475.8507 (a.u.)^3
     number of atoms/cell      =            2
     number of atomic types    =            1
     number of electrons       =        28.00
     number of Kohn-Sham states=           14
     kinetic-energy cutoff     =      50.0000  Ry
     charge density cutoff     =     400.0000  Ry
     convergence threshold     =      1.0E-12
     mixing beta               =       0.7000
     number of iterations used =            8  plain     mixing
     Exchange-correlation      =  SLA  PW   PBX  PBC ( 1  4  3  4 0 0)

     celldm(1)=  12.520000  celldm(2)=   0.000000  celldm(3)=   0.000000
     celldm(4)=   0.000000  celldm(5)=   0.000000  celldm(6)=   0.000000

     crystal axes: (cart. coord. in units of alat)
               a(1) = (  -0.494929   0.000000   0.494929 )  
               a(2) = (  -0.000000   0.494929   0.494929 )  
               a(3) = (  -0.494929   0.494929   0.000000 )  

     reciprocal axes: (cart. coord. in units 2 pi/alat)
               b(1) = ( -1.010247 -1.010247  1.010247 )  
               b(2) = (  1.010247  1.010247  1.010247 )  
               b(3) = ( -1.010247  1.010247 -1.010247 )  


     PseudoPot. # 1 for Sn read from file:
     /home/s1333534/quantum_espresso/qe-6.1/pseudo/sn_pbe_v1.4.uspp.F.UPF
     MD5 check sum: 469debedee59599fedebd795477fea03
     Pseudo is Ultrasoft + core correction, Zval = 14.0
     Generated by new atomic code, or converted to UPF format
     Using radial grid of  891 points,  6 beta functions with: 
                l(1) =   0
                l(2) =   0
                l(3) =   1
                l(4) =   1
                l(5) =   2
                l(6) =   2
     Q(r) pseudized with  8 coefficients,  rinner =    1.350   1.350   1.350
                                                       1.350   1.350

     atomic species   valence    mass     pseudopotential
        Sn            14.00   118.71000     Sn( 1.00)

     48 Sym. Ops., with inversion, found (24 have fractional translation)



   Cartesian axes

     site n.     atom                  positions (alat units)
         1           Sn  tau(   1) = (  -0.0000000  -0.0000000   0.0000000  )
         2           Sn  tau(   2) = (  -0.2474643   0.2474643   0.2474643  )

     number of k points=   408

     Number of k-points >= 100: set verbosity='high' to print them.

     Dense  grid:    64431 G-vectors     FFT dimensions: (  60,  60,  60)

     Smooth grid:    22659 G-vectors     FFT dimensions: (  40,  40,  40)

     Estimated max dynamical RAM per process >      73.82MB

     Estimated total allocated dynamical RAM >     295.29MB

     Initial potential from superposition of free atoms

     starting charge   25.99991, renormalised to   28.00000
     Starting wfc are   18 randomized atomic wfcs

     Writing output data file sn.alpha.relax.save

     total cpu time spent up to now is     1334.9 secs

     per-process dynamical memory:    95.4 Mb

     Self-consistent Calculation

     iteration #  1     ecut=    50.00 Ry     beta=0.70
     Davidson diagonalization with overlap
     ethr =  1.00E-06,  avg # of iterations =  8.9

     total cpu time spent up to now is     1366.9 secs

     total energy              =    -317.45954362 Ry
     Harris-Foulkes estimate   =    -319.54421217 Ry
     estimated scf accuracy    <       2.54097163 Ry

     iteration #  2     ecut=    50.00 Ry     beta=0.70
     Davidson diagonalization with overlap
     ethr =  9.07E-03,  avg # of iterations =  3.0

     total cpu time spent up to now is     1383.2 secs

     total energy              =    -318.38835239 Ry
     Harris-Foulkes estimate   =    -318.71996370 Ry
     estimated scf accuracy    <       0.49669182 Ry

     iteration #  3     ecut=    50.00 Ry     beta=0.70
     Davidson diagonalization with overlap
     ethr =  1.77E-03,  avg # of iterations =  2.0

     total cpu time spent up to now is     1397.9 secs

     total energy              =    -318.48774262 Ry
     Harris-Foulkes estimate   =    -318.48950859 Ry
     estimated scf accuracy    <       0.00326111 Ry

     iteration #  4     ecut=    50.00 Ry     beta=0.70
     Davidson diagonalization with overlap
     ethr =  1.16E-05,  avg # of iterations =  2.7

     total cpu time spent up to now is     1413.2 secs

     total energy              =    -318.48869928 Ry
     Harris-Foulkes estimate   =    -318.48881649 Ry
     estimated scf accuracy    <       0.00017709 Ry

     iteration #  5     ecut=    50.00 Ry     beta=0.70
     Davidson diagonalization with overlap
     ethr =  6.32E-07,  avg # of iterations =  2.2

     total cpu time spent up to now is     1427.9 secs

     total energy              =    -318.48874954 Ry
     Harris-Foulkes estimate   =    -318.48875046 Ry
     estimated scf accuracy    <       0.00000170 Ry

     iteration #  6     ecut=    50.00 Ry     beta=0.70
     Davidson diagonalization with overlap
     ethr =  6.06E-09,  avg # of iterations =  4.0

     total cpu time spent up to now is     1446.6 secs

     total energy              =    -318.48875063 Ry
     Harris-Foulkes estimate   =    -318.48875063 Ry
     estimated scf accuracy    <       0.00000002 Ry

     iteration #  7     ecut=    50.00 Ry     beta=0.70
     Davidson diagonalization with overlap
     ethr =  8.00E-11,  avg # of iterations =  3.1

     total cpu time spent up to now is     1459.8 secs

     total energy              =    -318.48875063 Ry
     Harris-Foulkes estimate   =    -318.48875063 Ry
     estimated scf accuracy    <          5.0E-09 Ry

     iteration #  8     ecut=    50.00 Ry     beta=0.70
     Davidson diagonalization with overlap
     ethr =  1.80E-11,  avg # of iterations =  2.3

     total cpu time spent up to now is     1473.1 secs

     total energy              =    -318.48875063 Ry
     Harris-Foulkes estimate   =    -318.48875063 Ry
     estimated scf accuracy    <          1.4E-10 Ry

     iteration #  9     ecut=    50.00 Ry     beta=0.70
     Davidson diagonalization with overlap
     ethr =  5.11E-13,  avg # of iterations =  4.1

     total cpu time spent up to now is     1490.9 secs

     total energy              =    -318.48875063 Ry
     Harris-Foulkes estimate   =    -318.48875063 Ry
     estimated scf accuracy    <          2.0E-11 Ry

     iteration # 10     ecut=    50.00 Ry     beta=0.70
     Davidson diagonalization with overlap
     ethr =  1.00E-13,  avg # of iterations =  2.6

     total cpu time spent up to now is     1503.5 secs

     total energy              =    -318.48875063 Ry
     Harris-Foulkes estimate   =    -318.48875063 Ry
     estimated scf accuracy    <          4.4E-12 Ry

     iteration # 11     ecut=    50.00 Ry     beta=0.70
     Davidson diagonalization with overlap
     ethr =  1.00E-13,  avg # of iterations =  1.0

     total cpu time spent up to now is     1513.9 secs

     End of self-consistent calculation

     Number of k-points >= 100: set verbosity='high' to print the bands.

     highest occupied level (ev):     7.5176

!    total energy              =    -318.48875063 Ry
     Harris-Foulkes estimate   =    -318.48875063 Ry
     estimated scf accuracy    <          7.6E-14 Ry

     The total energy is the sum of the following terms:

     one-electron contribution =    -158.18561565 Ry
     hartree contribution      =      96.08839923 Ry
     xc contribution           =     -86.00320119 Ry
     ewald contribution        =    -170.38833302 Ry

     convergence has been achieved in  11 iterations

     Forces acting on atoms (cartesian axes, Ry/au):

     atom    1 type  1   force =     0.00000000    0.00000000    0.00000000
     atom    2 type  1   force =     0.00000000    0.00000000   -0.00000000

     Total force =     0.000000     Total SCF correction =     0.000000


     Computing stress (Cartesian axis) and pressure

          total   stress  (Ry/bohr**3)                   (kbar)     P=   -1.13
  -0.00000768  -0.00000000  -0.00000000         -1.13     -0.00     -0.00
  -0.00000000  -0.00000768   0.00000000         -0.00     -1.13      0.00
   0.00000000   0.00000000  -0.00000768          0.00      0.00     -1.13


     Writing output data file sn.alpha.relax.save

     init_run     :     12.22s CPU     12.65s WALL (       2 calls)
     electrons    :   1419.41s CPU   1463.99s WALL (       6 calls)
     update_pot   :      4.04s CPU      4.06s WALL (       4 calls)
     forces       :      7.36s CPU      7.49s WALL (       6 calls)
     stress       :     26.97s CPU     27.17s WALL (       6 calls)

     Called by init_run:
     wfcinit      :     10.08s CPU     10.45s WALL (       2 calls)
     potinit      :      0.30s CPU      0.32s WALL (       2 calls)

     Called by electrons:
     c_bands      :   1199.16s CPU   1235.99s WALL (      98 calls)
     sum_band     :    208.59s CPU    215.49s WALL (      98 calls)
     v_of_rho     :      4.71s CPU      4.81s WALL (     104 calls)
     newd         :      6.61s CPU      7.36s WALL (     104 calls)
     mix_rho      :      0.56s CPU      0.58s WALL (      98 calls)

     Called by c_bands:
     init_us_2    :     33.75s CPU     34.56s WALL (   85680 calls)
     cegterg      :   1133.46s CPU   1169.38s WALL (   39984 calls)

     Called by sum_band:
     sum_band:bec :      0.40s CPU      0.41s WALL (   39984 calls)
     addusdens    :      7.57s CPU      8.75s WALL (      98 calls)

     Called by *egterg:
     h_psi        :    947.51s CPU    980.88s WALL (  141341 calls)
     s_psi        :     16.88s CPU     17.31s WALL (  141341 calls)
     g_psi        :      6.25s CPU      6.32s WALL (  100541 calls)
     cdiaghg      :     52.62s CPU     53.33s WALL (  138893 calls)

     Called by h_psi:
     h_psi:pot    :    939.34s CPU    972.52s WALL (  141341 calls)
     h_psi:calbec :     38.48s CPU     40.00s WALL (  141341 calls)
     vloc_psi     :    879.24s CPU    910.19s WALL (  141341 calls)
     add_vuspsi   :     20.96s CPU     21.72s WALL (  141341 calls)

     General routines
     calbec       :     51.86s CPU     53.84s WALL (  193565 calls)
     fft          :      2.45s CPU      2.58s WALL (    1794 calls)
     ffts         :      0.07s CPU      0.07s WALL (     202 calls)
     fftw         :    830.45s CPU    859.69s WALL ( 3855666 calls)
     interpolate  :      0.43s CPU      0.44s WALL (     202 calls)
     davcio       :      0.02s CPU      0.06s WALL (     816 calls)

     Parallel routines
     fft_scatter  :    136.29s CPU    142.03s WALL ( 3857662 calls)

     PWSCF        : 24m32.69s CPU    25m18.38s WALL


   This run was terminated on:  12:52:52  22Jan2018            

=------------------------------------------------------------------------------=
   JOB DONE.
=------------------------------------------------------------------------------=
