
     Program PWSCF v.6.1 (svn rev. 13369) starts on 22Jan2018 at 12:20:10 

     This program is part of the open-source Quantum ESPRESSO suite
     for quantum simulation of materials; please cite
         "P. Giannozzi et al., J. Phys.:Condens. Matter 21 395502 (2009);
          URL http://www.quantum-espresso.org", 
     in publications or presentations arising from this work. More details at
     http://www.quantum-espresso.org/quote

     Parallel version (MPI), running on     4 processors
     R & G space division:  proc/nbgrp/npool/nimage =       4
     Waiting for input...
     Reading input from standard input

     Current dimensions of program PWSCF are:
     Max number of different atomic species (ntypx) = 10
     Max number of k-points (npk) =  40000
     Max angular momentum in pseudopotentials (lmaxx) =  3

     Subspace diagonalization in iterative solution of the eigenvalue problem:
     a serial algorithm will be used


   Info: using nr1, nr2, nr3 values from input

     Parallelization info
     --------------------
     sticks:   dense  smooth     PW     G-vecs:    dense   smooth      PW
     Min        1220     485    199                17251     4364    1157
     Max        1221     486    200                17252     4365    1158
     Sum        4881    1941    797                69005    17457    4629



     bravais-lattice index     =            0
     lattice parameter (alat)  =      11.2375  a.u.
     unit-cell volume          =     365.5987 (a.u.)^3
     number of atoms/cell      =            2
     number of atomic types    =            1
     number of electrons       =        28.00
     number of Kohn-Sham states=           18
     kinetic-energy cutoff     =      50.0000  Ry
     charge density cutoff     =     500.0000  Ry
     convergence threshold     =      1.0E-10
     mixing beta               =       0.7000
     number of iterations used =            8  plain     mixing
     Exchange-correlation      =  SLA  PW   PBX  PBC ( 1  4  3  4 0 0)
     nstep                     =           50


     celldm(1)=  11.237464  celldm(2)=   0.000000  celldm(3)=   0.000000
     celldm(4)=   0.000000  celldm(5)=   0.000000  celldm(6)=   0.000000

     crystal axes: (cart. coord. in units of alat)
               a(1) = (   0.986000   0.000000   0.000000 )  
               a(2) = (   0.000000   0.986000   0.000000 )  
               a(3) = (   0.493000   0.493000   0.265000 )  

     reciprocal axes: (cart. coord. in units 2 pi/alat)
               b(1) = (  1.014199  0.000000 -1.886792 )  
               b(2) = (  0.000000  1.014199 -1.886792 )  
               b(3) = (  0.000000  0.000000  3.773585 )  


     PseudoPot. # 1 for Sn read from file:
     /home/s1333534/quantum_espresso/qe-6.1/pseudo/sn_pbe_v1.4.uspp.F.UPF
     MD5 check sum: 469debedee59599fedebd795477fea03
     Pseudo is Ultrasoft + core correction, Zval = 14.0
     Generated by new atomic code, or converted to UPF format
     Using radial grid of  891 points,  6 beta functions with: 
                l(1) =   0
                l(2) =   0
                l(3) =   1
                l(4) =   1
                l(5) =   2
                l(6) =   2
     Q(r) pseudized with  8 coefficients,  rinner =    1.350   1.350   1.350
                                                       1.350   1.350

     atomic species   valence    mass     pseudopotential
        Sn            14.00   118.71000     Sn( 1.00)

     16 Sym. Ops., with inversion, found (12 have fractional translation)



   Cartesian axes

     site n.     atom                  positions (alat units)
         1           Sn  tau(   1) = (   0.9860000   1.2325000   0.1987500  )
         2           Sn  tau(   2) = (   0.4930000   0.2465000   0.0662500  )

     number of k points=   687  Marzari-Vanderbilt smearing, width (Ry)=  0.0200

     Number of k-points >= 100: set verbosity='high' to print them.

     Dense  grid:    69005 G-vectors     FFT dimensions: (  80,  80,  80)

     Smooth grid:    17457 G-vectors     FFT dimensions: (  50,  50,  40)

     Estimated max dynamical RAM per process >     120.25MB

     Estimated total allocated dynamical RAM >     481.01MB

     Initial potential from superposition of free atoms

     starting charge   25.99991, renormalised to   28.00000
     Starting wfc are   18 randomized atomic wfcs

     total cpu time spent up to now is       23.3 secs

     per-process dynamical memory:   133.1 Mb

     Self-consistent Calculation

     iteration #  1     ecut=    50.00 Ry     beta=0.70
     Davidson diagonalization with overlap
     ethr =  1.00E-02,  avg # of iterations =  3.4

     total cpu time spent up to now is      111.5 secs

     total energy              =    -317.56826676 Ry
     Harris-Foulkes estimate   =    -319.49692449 Ry
     estimated scf accuracy    <       2.36233326 Ry

     iteration #  2     ecut=    50.00 Ry     beta=0.70
     Davidson diagonalization with overlap
     ethr =  8.44E-03,  avg # of iterations =  2.7

     total cpu time spent up to now is      190.3 secs

     total energy              =    -318.40138012 Ry
     Harris-Foulkes estimate   =    -318.67254029 Ry
     estimated scf accuracy    <       0.39391562 Ry

     iteration #  3     ecut=    50.00 Ry     beta=0.70
     Davidson diagonalization with overlap
     ethr =  1.41E-03,  avg # of iterations =  2.0

     total cpu time spent up to now is      268.5 secs

     total energy              =    -318.48190304 Ry
     Harris-Foulkes estimate   =    -318.48298692 Ry
     estimated scf accuracy    <       0.00201010 Ry

     iteration #  4     ecut=    50.00 Ry     beta=0.70
     Davidson diagonalization with overlap
     ethr =  7.18E-06,  avg # of iterations =  3.4

     total cpu time spent up to now is      353.8 secs

     total energy              =    -318.48237485 Ry
     Harris-Foulkes estimate   =    -318.48244817 Ry
     estimated scf accuracy    <       0.00010803 Ry

     iteration #  5     ecut=    50.00 Ry     beta=0.70
     Davidson diagonalization with overlap
     ethr =  3.86E-07,  avg # of iterations =  2.0

     total cpu time spent up to now is      430.9 secs

     total energy              =    -318.48240262 Ry
     Harris-Foulkes estimate   =    -318.48240255 Ry
     estimated scf accuracy    <       0.00000013 Ry

     iteration #  6     ecut=    50.00 Ry     beta=0.70
     Davidson diagonalization with overlap
     ethr =  4.57E-10,  avg # of iterations =  4.0

     total cpu time spent up to now is      523.8 secs

     total energy              =    -318.48240289 Ry
     Harris-Foulkes estimate   =    -318.48240289 Ry
     estimated scf accuracy    <          4.8E-09 Ry

     iteration #  7     ecut=    50.00 Ry     beta=0.70
     Davidson diagonalization with overlap
     ethr =  1.70E-11,  avg # of iterations =  2.0

     total cpu time spent up to now is      593.5 secs

     End of self-consistent calculation

     Number of k-points >= 100: set verbosity='high' to print the bands.

     the Fermi energy is    10.7696 ev

!    total energy              =    -318.48240289 Ry
     Harris-Foulkes estimate   =    -318.48240289 Ry
     estimated scf accuracy    <          4.9E-11 Ry

     The total energy is the sum of the following terms:

     one-electron contribution =    -111.02271227 Ry
     hartree contribution      =      75.98511411 Ry
     xc contribution           =     -86.02957650 Ry
     ewald contribution        =    -197.41539548 Ry
     smearing contrib. (-TS)   =       0.00016726 Ry

     convergence has been achieved in   7 iterations

     Forces acting on atoms (cartesian axes, Ry/au):

     atom    1 type  1   force =     0.00000000    0.00000000    0.00000000
     atom    2 type  1   force =     0.00000000    0.00000000    0.00000000

     Total force =     0.000000     Total SCF correction =     0.000000


     Computing stress (Cartesian axis) and pressure

          total   stress  (Ry/bohr**3)                   (kbar)     P=    1.29
   0.00000324   0.00000000  -0.00000000          0.48      0.00     -0.00
   0.00000000   0.00000324   0.00000000          0.00      0.48      0.00
  -0.00000000   0.00000000   0.00001976         -0.00      0.00      2.91


     BFGS Geometry Optimization

     number of scf cycles    =   1
     number of bfgs steps    =   0

     enthalpy new            =    -318.4824028867 Ry

     new trust radius        =       0.0018890635 bohr
     new conv_thr            =            1.0E-10 Ry

     new unit-cell volume =    365.83856 a.u.^3 (    54.21168 Ang^3 )
     density =      7.27233 g/cm^3

CELL_PARAMETERS (alat= 11.23746432)
   0.986079817   0.000000000  -0.000000000
   0.000000000   0.986079817   0.000000000
   0.493039909   0.493039909   0.265130906

ATOMIC_POSITIONS (crystal)
Sn       0.625000000   0.875000000   0.750000000
Sn       0.375000000   0.125000000   0.250000000



     Writing output data file sn.beta.relax.save
     NEW-OLD atomic charge density approx. for the potential
     extrapolated charge   28.01704, renormalised to   28.00000

     total cpu time spent up to now is      603.3 secs

     per-process dynamical memory:   140.1 Mb

     Self-consistent Calculation

     iteration #  1     ecut=    50.00 Ry     beta=0.70
     Davidson diagonalization with overlap
     ethr =  1.00E-06,  avg # of iterations =  2.0

     total cpu time spent up to now is      674.8 secs

     total energy              =    -318.48235221 Ry
     Harris-Foulkes estimate   =    -318.42208991 Ry
     estimated scf accuracy    <       0.00003462 Ry

     iteration #  2     ecut=    50.00 Ry     beta=0.70
     Davidson diagonalization with overlap
     ethr =  1.24E-07,  avg # of iterations =  3.0

     total cpu time spent up to now is      758.4 secs

     total energy              =    -318.48240530 Ry
     Harris-Foulkes estimate   =    -318.48243040 Ry
     estimated scf accuracy    <       0.00005108 Ry

     iteration #  3     ecut=    50.00 Ry     beta=0.70
     Davidson diagonalization with overlap
     ethr =  1.24E-07,  avg # of iterations =  2.0

     total cpu time spent up to now is      822.4 secs

     total energy              =    -318.48240659 Ry
     Harris-Foulkes estimate   =    -318.48240971 Ry
     estimated scf accuracy    <       0.00000779 Ry

     iteration #  4     ecut=    50.00 Ry     beta=0.70
     Davidson diagonalization with overlap
     ethr =  2.78E-08,  avg # of iterations =  1.1

     total cpu time spent up to now is      879.2 secs

     total energy              =    -318.48240597 Ry
     Harris-Foulkes estimate   =    -318.48240704 Ry
     estimated scf accuracy    <       0.00000219 Ry

     iteration #  5     ecut=    50.00 Ry     beta=0.70
     Davidson diagonalization with overlap
     ethr =  7.81E-09,  avg # of iterations =  2.0

     total cpu time spent up to now is      941.5 secs

     total energy              =    -318.48240607 Ry
     Harris-Foulkes estimate   =    -318.48240626 Ry
     estimated scf accuracy    <       0.00000026 Ry

     iteration #  6     ecut=    50.00 Ry     beta=0.70
     Davidson diagonalization with overlap
     ethr =  9.31E-10,  avg # of iterations =  3.0

     total cpu time spent up to now is     1018.5 secs

     total energy              =    -318.48240617 Ry
     Harris-Foulkes estimate   =    -318.48240617 Ry
     estimated scf accuracy    <          3.0E-09 Ry

     iteration #  7     ecut=    50.00 Ry     beta=0.70
     Davidson diagonalization with overlap
     ethr =  1.07E-11,  avg # of iterations =  2.0

     total cpu time spent up to now is     1081.0 secs

     total energy              =    -318.48240617 Ry
     Harris-Foulkes estimate   =    -318.48240617 Ry
     estimated scf accuracy    <          2.5E-09 Ry

     iteration #  8     ecut=    50.00 Ry     beta=0.70
     Davidson diagonalization with overlap
     ethr =  8.84E-12,  avg # of iterations =  1.0

     total cpu time spent up to now is     1135.3 secs

     total energy              =    -318.48240617 Ry
     Harris-Foulkes estimate   =    -318.48240617 Ry
     estimated scf accuracy    <          9.6E-10 Ry

     iteration #  9     ecut=    50.00 Ry     beta=0.70
     Davidson diagonalization with overlap
     ethr =  3.42E-12,  avg # of iterations =  1.0

     total cpu time spent up to now is     1189.3 secs

     total energy              =    -318.48240617 Ry
     Harris-Foulkes estimate   =    -318.48240617 Ry
     estimated scf accuracy    <          2.2E-10 Ry

     iteration # 10     ecut=    50.00 Ry     beta=0.70
     Davidson diagonalization with overlap
     ethr =  7.94E-13,  avg # of iterations =  3.0

     total cpu time spent up to now is     1269.8 secs

     End of self-consistent calculation

     Number of k-points >= 100: set verbosity='high' to print the bands.

     the Fermi energy is    10.7596 ev

!    total energy              =    -318.48240617 Ry
     Harris-Foulkes estimate   =    -318.48240617 Ry
     estimated scf accuracy    <          3.8E-12 Ry

     The total energy is the sum of the following terms:

     one-electron contribution =    -111.09006259 Ry
     hartree contribution      =      76.00899005 Ry
     xc contribution           =     -86.02883057 Ry
     ewald contribution        =    -197.37267167 Ry
     smearing contrib. (-TS)   =       0.00016862 Ry

     convergence has been achieved in  10 iterations

     Forces acting on atoms (cartesian axes, Ry/au):

     atom    1 type  1   force =     0.00000000   -0.00000000    0.00000000
     atom    2 type  1   force =     0.00000000   -0.00000000    0.00000000

     Total force =     0.000000     Total SCF correction =     0.000000


     Computing stress (Cartesian axis) and pressure

          total   stress  (Ry/bohr**3)                   (kbar)     P=    0.88
   0.00000129  -0.00000000  -0.00000000          0.19     -0.00     -0.00
  -0.00000000   0.00000129  -0.00000000         -0.00      0.19     -0.00
  -0.00000000  -0.00000000   0.00001542         -0.00     -0.00      2.27


     number of scf cycles    =   2
     number of bfgs steps    =   1

     enthalpy old            =    -318.4824028867 Ry
     enthalpy new            =    -318.4824061653 Ry

     CASE: enthalpy_new < enthalpy_old

     new trust radius        =       0.0028331250 bohr
     new conv_thr            =            1.0E-12 Ry

     new unit-cell volume =    366.15654 a.u.^3 (    54.25880 Ang^3 )
     density =      7.26601 g/cm^3

CELL_PARAMETERS (alat= 11.23746432)
   0.986143158  -0.000000000  -0.000000000
   0.000000000   0.986143158   0.000000000
   0.493071579   0.493071579   0.265327265

ATOMIC_POSITIONS (crystal)
Sn       0.625000000   0.875000000   0.750000000
Sn       0.375000000   0.125000000   0.250000000



     Writing output data file sn.beta.relax.save
     NEW-OLD atomic charge density approx. for the potential
     extrapolated charge   28.02258, renormalised to   28.00000

     total cpu time spent up to now is     1279.6 secs

     per-process dynamical memory:   140.1 Mb

     Self-consistent Calculation

     iteration #  1     ecut=    50.00 Ry     beta=0.70
     Davidson diagonalization with overlap
     ethr =  1.00E-06,  avg # of iterations =  2.2

     total cpu time spent up to now is     1357.8 secs

     total energy              =    -318.48231465 Ry
     Harris-Foulkes estimate   =    -318.40245382 Ry
     estimated scf accuracy    <       0.00006083 Ry

     iteration #  2     ecut=    50.00 Ry     beta=0.70
     Davidson diagonalization with overlap
     ethr =  2.17E-07,  avg # of iterations =  3.0

     total cpu time spent up to now is     1440.4 secs

     total energy              =    -318.48240797 Ry
     Harris-Foulkes estimate   =    -318.48245207 Ry
     estimated scf accuracy    <       0.00008976 Ry

     iteration #  3     ecut=    50.00 Ry     beta=0.70
     Davidson diagonalization with overlap
     ethr =  2.17E-07,  avg # of iterations =  2.0

     total cpu time spent up to now is     1504.3 secs

     total energy              =    -318.48241010 Ry
     Harris-Foulkes estimate   =    -318.48241572 Ry
     estimated scf accuracy    <       0.00001370 Ry

     iteration #  4     ecut=    50.00 Ry     beta=0.70
     Davidson diagonalization with overlap
     ethr =  4.89E-08,  avg # of iterations =  1.2

     total cpu time spent up to now is     1557.8 secs

     total energy              =    -318.48240905 Ry
     Harris-Foulkes estimate   =    -318.48241092 Ry
     estimated scf accuracy    <       0.00000365 Ry

     iteration #  5     ecut=    50.00 Ry     beta=0.70
     Davidson diagonalization with overlap
     ethr =  1.30E-08,  avg # of iterations =  2.1

     total cpu time spent up to now is     1621.8 secs

     total energy              =    -318.48240937 Ry
     Harris-Foulkes estimate   =    -318.48240962 Ry
     estimated scf accuracy    <       0.00000034 Ry

     iteration #  6     ecut=    50.00 Ry     beta=0.70
     Davidson diagonalization with overlap
     ethr =  1.21E-09,  avg # of iterations =  2.4

     total cpu time spent up to now is     1692.4 secs

     total energy              =    -318.48240948 Ry
     Harris-Foulkes estimate   =    -318.48240948 Ry
     estimated scf accuracy    <          4.9E-09 Ry

     iteration #  7     ecut=    50.00 Ry     beta=0.70
     Davidson diagonalization with overlap
     ethr =  1.76E-11,  avg # of iterations =  2.0

     total cpu time spent up to now is     1752.3 secs

     total energy              =    -318.48240948 Ry
     Harris-Foulkes estimate   =    -318.48240948 Ry
     estimated scf accuracy    <          4.4E-09 Ry

     iteration #  8     ecut=    50.00 Ry     beta=0.70
     Davidson diagonalization with overlap
     ethr =  1.56E-11,  avg # of iterations =  1.0

     total cpu time spent up to now is     1807.5 secs

     total energy              =    -318.48240948 Ry
     Harris-Foulkes estimate   =    -318.48240948 Ry
     estimated scf accuracy    <          1.4E-09 Ry

     iteration #  9     ecut=    50.00 Ry     beta=0.70
     Davidson diagonalization with overlap
     ethr =  5.05E-12,  avg # of iterations =  1.0

     total cpu time spent up to now is     1863.7 secs

     total energy              =    -318.48240948 Ry
     Harris-Foulkes estimate   =    -318.48240948 Ry
     estimated scf accuracy    <          4.3E-10 Ry

     iteration # 10     ecut=    50.00 Ry     beta=0.70
     Davidson diagonalization with overlap
     ethr =  1.52E-12,  avg # of iterations =  1.0

     total cpu time spent up to now is     1920.0 secs

     total energy              =    -318.48240948 Ry
     Harris-Foulkes estimate   =    -318.48240948 Ry
     estimated scf accuracy    <          3.4E-10 Ry

     iteration # 11     ecut=    50.00 Ry     beta=0.70
     Davidson diagonalization with overlap
     ethr =  1.21E-12,  avg # of iterations =  1.0

     total cpu time spent up to now is     1975.5 secs

     total energy              =    -318.48240948 Ry
     Harris-Foulkes estimate   =    -318.48240948 Ry
     estimated scf accuracy    <          3.7E-10 Ry

     iteration # 12     ecut=    50.00 Ry     beta=0.70
     Davidson diagonalization with overlap
     ethr =  1.21E-12,  avg # of iterations =  2.0

     total cpu time spent up to now is     2042.8 secs

     total energy              =    -318.48240948 Ry
     Harris-Foulkes estimate   =    -318.48240948 Ry
     estimated scf accuracy    <          3.9E-11 Ry

     iteration # 13     ecut=    50.00 Ry     beta=0.70
     Davidson diagonalization with overlap
     ethr =  1.40E-13,  avg # of iterations =  3.0

     total cpu time spent up to now is     2126.0 secs

     total energy              =    -318.48240948 Ry
     Harris-Foulkes estimate   =    -318.48240948 Ry
     estimated scf accuracy    <          1.0E-10 Ry

     iteration # 14     ecut=    50.00 Ry     beta=0.70
     Davidson diagonalization with overlap
     ethr =  1.40E-13,  avg # of iterations =  1.2

     total cpu time spent up to now is     2179.2 secs

     total energy              =    -318.48240948 Ry
     Harris-Foulkes estimate   =    -318.48240948 Ry
     estimated scf accuracy    <          4.1E-11 Ry

     iteration # 15     ecut=    50.00 Ry     beta=0.70
     Davidson diagonalization with overlap
     ethr =  1.40E-13,  avg # of iterations =  1.0

     total cpu time spent up to now is     2231.9 secs

     total energy              =    -318.48240948 Ry
     Harris-Foulkes estimate   =    -318.48240948 Ry
     estimated scf accuracy    <          9.9E-12 Ry

     iteration # 16     ecut=    50.00 Ry     beta=0.70
     Davidson diagonalization with overlap
     ethr =  1.00E-13,  avg # of iterations =  3.0

     total cpu time spent up to now is     2307.4 secs

     total energy              =    -318.48240948 Ry
     Harris-Foulkes estimate   =    -318.48240948 Ry
     estimated scf accuracy    <          8.5E-12 Ry

     iteration # 17     ecut=    50.00 Ry     beta=0.70
     Davidson diagonalization with overlap
     ethr =  1.00E-13,  avg # of iterations =  1.0

     total cpu time spent up to now is     2360.3 secs

     total energy              =    -318.48240948 Ry
     Harris-Foulkes estimate   =    -318.48240948 Ry
     estimated scf accuracy    <          2.1E-12 Ry

     iteration # 18     ecut=    50.00 Ry     beta=0.70
     Davidson diagonalization with overlap
     ethr =  1.00E-13,  avg # of iterations =  1.0

     total cpu time spent up to now is     2412.9 secs

     End of self-consistent calculation

     Number of k-points >= 100: set verbosity='high' to print the bands.

     the Fermi energy is    10.7464 ev

!    total energy              =    -318.48240948 Ry
     Harris-Foulkes estimate   =    -318.48240948 Ry
     estimated scf accuracy    <          2.2E-14 Ry

     The total energy is the sum of the following terms:

     one-electron contribution =    -111.17908048 Ry
     hartree contribution      =      76.04052779 Ry
     xc contribution           =     -86.02784322 Ry
     ewald contribution        =    -197.31618437 Ry
     smearing contrib. (-TS)   =       0.00017080 Ry

     convergence has been achieved in  18 iterations

     Forces acting on atoms (cartesian axes, Ry/au):

     atom    1 type  1   force =     0.00000000   -0.00000000    0.00000000
     atom    2 type  1   force =    -0.00000000    0.00000000   -0.00000000

     Total force =     0.000000     Total SCF correction =     0.000000


     Computing stress (Cartesian axis) and pressure

          total   stress  (Ry/bohr**3)                   (kbar)     P=    0.34
  -0.00000108   0.00000000  -0.00000000         -0.16      0.00     -0.00
   0.00000000  -0.00000108   0.00000000          0.00     -0.16      0.00
  -0.00000000   0.00000000   0.00000919         -0.00      0.00      1.35


     number of scf cycles    =   3
     number of bfgs steps    =   2

     enthalpy old            =    -318.4824061653 Ry
     enthalpy new            =    -318.4824094817 Ry

     CASE: enthalpy_new < enthalpy_old

     new trust radius        =       0.0041245983 bohr
     new conv_thr            =            1.0E-12 Ry

     new unit-cell volume =    366.54256 a.u.^3 (    54.31600 Ang^3 )
     density =      7.25836 g/cm^3

CELL_PARAMETERS (alat= 11.23746432)
   0.986131592   0.000000000  -0.000000000
   0.000000000   0.986131592   0.000000000
   0.493065796   0.493065796   0.265613222

ATOMIC_POSITIONS (crystal)
Sn       0.625000000   0.875000000   0.750000000
Sn       0.375000000   0.125000000   0.250000000



     Writing output data file sn.beta.relax.save
     NEW-OLD atomic charge density approx. for the potential
     extrapolated charge   28.02738, renormalised to   28.00000

     total cpu time spent up to now is     2422.7 secs

     per-process dynamical memory:   140.1 Mb

     Self-consistent Calculation

     iteration #  1     ecut=    50.00 Ry     beta=0.70
     Davidson diagonalization with overlap
     ethr =  1.00E-06,  avg # of iterations =  3.0

     total cpu time spent up to now is     2503.6 secs

     total energy              =    -318.48227169 Ry
     Harris-Foulkes estimate   =    -318.38537141 Ry
     estimated scf accuracy    <       0.00008980 Ry

     iteration #  2     ecut=    50.00 Ry     beta=0.70
     Davidson diagonalization with overlap
     ethr =  3.21E-07,  avg # of iterations =  3.0

     total cpu time spent up to now is     2586.4 secs

     total energy              =    -318.48240923 Ry
     Harris-Foulkes estimate   =    -318.48247432 Ry
     estimated scf accuracy    <       0.00013246 Ry

     iteration #  3     ecut=    50.00 Ry     beta=0.70
     Davidson diagonalization with overlap
     ethr =  3.21E-07,  avg # of iterations =  2.0

     total cpu time spent up to now is     2651.7 secs

     total energy              =    -318.48241198 Ry
     Harris-Foulkes estimate   =    -318.48242067 Ry
     estimated scf accuracy    <       0.00002021 Ry

     iteration #  4     ecut=    50.00 Ry     beta=0.70
     Davidson diagonalization with overlap
     ethr =  7.22E-08,  avg # of iterations =  1.3

     total cpu time spent up to now is     2708.2 secs

     total energy              =    -318.48241067 Ry
     Harris-Foulkes estimate   =    -318.48241332 Ry
     estimated scf accuracy    <       0.00000485 Ry

     iteration #  5     ecut=    50.00 Ry     beta=0.70
     Davidson diagonalization with overlap
     ethr =  1.73E-08,  avg # of iterations =  2.4

     total cpu time spent up to now is     2775.5 secs

     total energy              =    -318.48241137 Ry
     Harris-Foulkes estimate   =    -318.48241158 Ry
     estimated scf accuracy    <       0.00000028 Ry

     iteration #  6     ecut=    50.00 Ry     beta=0.70
     Davidson diagonalization with overlap
     ethr =  1.01E-09,  avg # of iterations =  2.1

     total cpu time spent up to now is     2844.1 secs

     total energy              =    -318.48241147 Ry
     Harris-Foulkes estimate   =    -318.48241147 Ry
     estimated scf accuracy    <          9.3E-09 Ry

     iteration #  7     ecut=    50.00 Ry     beta=0.70
     Davidson diagonalization with overlap
     ethr =  3.33E-11,  avg # of iterations =  1.9

     total cpu time spent up to now is     2899.9 secs

     total energy              =    -318.48241147 Ry
     Harris-Foulkes estimate   =    -318.48241147 Ry
     estimated scf accuracy    <          8.0E-09 Ry

     iteration #  8     ecut=    50.00 Ry     beta=0.70
     Davidson diagonalization with overlap
     ethr =  2.84E-11,  avg # of iterations =  1.9

     total cpu time spent up to now is     2955.2 secs

     total energy              =    -318.48241147 Ry
     Harris-Foulkes estimate   =    -318.48241147 Ry
     estimated scf accuracy    <          7.3E-10 Ry

     iteration #  9     ecut=    50.00 Ry     beta=0.70
     Davidson diagonalization with overlap
     ethr =  2.60E-12,  avg # of iterations =  2.0

     total cpu time spent up to now is     3017.4 secs

     total energy              =    -318.48241147 Ry
     Harris-Foulkes estimate   =    -318.48241147 Ry
     estimated scf accuracy    <          3.9E-10 Ry

     iteration # 10     ecut=    50.00 Ry     beta=0.70
     Davidson diagonalization with overlap
     ethr =  1.40E-12,  avg # of iterations =  1.4

     total cpu time spent up to now is     3074.6 secs

     total energy              =    -318.48241147 Ry
     Harris-Foulkes estimate   =    -318.48241147 Ry
     estimated scf accuracy    <          1.7E-10 Ry

     iteration # 11     ecut=    50.00 Ry     beta=0.70
     Davidson diagonalization with overlap
     ethr =  5.97E-13,  avg # of iterations =  2.0

     total cpu time spent up to now is     3142.8 secs

     End of self-consistent calculation

     Number of k-points >= 100: set verbosity='high' to print the bands.

     the Fermi energy is    10.7304 ev

!    total energy              =    -318.48241147 Ry
     Harris-Foulkes estimate   =    -318.48241147 Ry
     estimated scf accuracy    <          7.7E-13 Ry

     The total energy is the sum of the following terms:

     one-electron contribution =    -111.28666036 Ry
     hartree contribution      =      76.07860751 Ry
     xc contribution           =     -86.02665033 Ry
     ewald contribution        =    -197.24788250 Ry
     smearing contrib. (-TS)   =       0.00017422 Ry

     convergence has been achieved in  11 iterations

     Forces acting on atoms (cartesian axes, Ry/au):

     atom    1 type  1   force =     0.00000000    0.00000000    0.00000000
     atom    2 type  1   force =     0.00000000    0.00000000    0.00000000

     Total force =     0.000000     Total SCF correction =     0.000000


     Computing stress (Cartesian axis) and pressure

          total   stress  (Ry/bohr**3)                   (kbar)     P=   -0.29
  -0.00000337   0.00000000   0.00000000         -0.50      0.00      0.00
   0.00000000  -0.00000337  -0.00000000          0.00     -0.50     -0.00
  -0.00000000  -0.00000000   0.00000080         -0.00     -0.00      0.12


     number of scf cycles    =   4
     number of bfgs steps    =   3

     enthalpy old            =    -318.4824094817 Ry
     enthalpy new            =    -318.4824114666 Ry

     CASE: enthalpy_new < enthalpy_old

     new trust radius        =       0.0006070546 bohr
     new conv_thr            =            1.0E-12 Ry

     new unit-cell volume =    366.53776 a.u.^3 (    54.31529 Ang^3 )
     density =      7.25846 g/cm^3

CELL_PARAMETERS (alat= 11.23746432)
   0.986046964   0.000000000  -0.000000000
   0.000000000   0.986046964  -0.000000000
   0.493023482   0.493023482   0.265655332

ATOMIC_POSITIONS (crystal)
Sn       0.625000000   0.875000000   0.750000000
Sn       0.375000000   0.125000000   0.250000000



     Writing output data file sn.beta.relax.save
     NEW-OLD atomic charge density approx. for the potential
     extrapolated charge   27.99966, renormalised to   28.00000

     total cpu time spent up to now is     3152.6 secs

     per-process dynamical memory:   140.1 Mb

     Self-consistent Calculation

     iteration #  1     ecut=    50.00 Ry     beta=0.70
     Davidson diagonalization with overlap
     ethr =  1.00E-06,  avg # of iterations =  2.0

     Threshold (ethr) on eigenvalues was too large:
     Diagonalizing with lowered threshold

     Davidson diagonalization with overlap
     ethr =  7.42E-11,  avg # of iterations =  2.4

     total cpu time spent up to now is     3290.6 secs

     total energy              =    -318.48241166 Ry
     Harris-Foulkes estimate   =    -318.48362031 Ry
     estimated scf accuracy    <       0.00000002 Ry

     iteration #  2     ecut=    50.00 Ry     beta=0.70
     Davidson diagonalization with overlap
     ethr =  7.44E-11,  avg # of iterations =  3.0

     total cpu time spent up to now is     3375.5 secs

     total energy              =    -318.48241168 Ry
     Harris-Foulkes estimate   =    -318.48241169 Ry
     estimated scf accuracy    <       0.00000002 Ry

     iteration #  3     ecut=    50.00 Ry     beta=0.70
     Davidson diagonalization with overlap
     ethr =  7.12E-11,  avg # of iterations =  2.0

     total cpu time spent up to now is     3439.4 secs

     total energy              =    -318.48241168 Ry
     Harris-Foulkes estimate   =    -318.48241168 Ry
     estimated scf accuracy    <          2.2E-09 Ry

     iteration #  4     ecut=    50.00 Ry     beta=0.70
     Davidson diagonalization with overlap
     ethr =  7.82E-12,  avg # of iterations =  3.0

     total cpu time spent up to now is     3514.5 secs

     total energy              =    -318.48241168 Ry
     Harris-Foulkes estimate   =    -318.48241168 Ry
     estimated scf accuracy    <          3.6E-11 Ry

     iteration #  5     ecut=    50.00 Ry     beta=0.70
     Davidson diagonalization with overlap
     ethr =  1.30E-13,  avg # of iterations =  2.0

     total cpu time spent up to now is     3578.2 secs

     total energy              =    -318.48241168 Ry
     Harris-Foulkes estimate   =    -318.48241168 Ry
     estimated scf accuracy    <          2.9E-12 Ry

     iteration #  6     ecut=    50.00 Ry     beta=0.70
     Davidson diagonalization with overlap
     ethr =  1.00E-13,  avg # of iterations =  1.0

     total cpu time spent up to now is     3631.1 secs

     End of self-consistent calculation

     Number of k-points >= 100: set verbosity='high' to print the bands.

     the Fermi energy is    10.7306 ev

!    total energy              =    -318.48241168 Ry
     Harris-Foulkes estimate   =    -318.48241168 Ry
     estimated scf accuracy    <          8.1E-14 Ry

     The total energy is the sum of the following terms:

     one-electron contribution =    -111.28488934 Ry
     hartree contribution      =      76.07792264 Ry
     xc contribution           =     -86.02666582 Ry
     ewald contribution        =    -197.24895415 Ry
     smearing contrib. (-TS)   =       0.00017498 Ry

     convergence has been achieved in   6 iterations

     Forces acting on atoms (cartesian axes, Ry/au):

     atom    1 type  1   force =     0.00000000    0.00000000    0.00000000
     atom    2 type  1   force =     0.00000000    0.00000000    0.00000000

     Total force =     0.000000     Total SCF correction =     0.000000


     Computing stress (Cartesian axis) and pressure

          total   stress  (Ry/bohr**3)                   (kbar)     P=   -0.29
  -0.00000288   0.00000000  -0.00000000         -0.42      0.00     -0.00
   0.00000000  -0.00000288  -0.00000000          0.00     -0.42     -0.00
  -0.00000000  -0.00000000  -0.00000007         -0.00     -0.00     -0.01


     number of scf cycles    =   5
     number of bfgs steps    =   4

     enthalpy old            =    -318.4824114666 Ry
     enthalpy new            =    -318.4824116841 Ry

     CASE: enthalpy_new < enthalpy_old

     new trust radius        =       0.0009104316 bohr
     new conv_thr            =            1.0E-12 Ry

     new unit-cell volume =    366.43699 a.u.^3 (    54.30036 Ang^3 )
     density =      7.26045 g/cm^3

CELL_PARAMETERS (alat= 11.23746432)
   0.985812512   0.000000000  -0.000000000
  -0.000000000   0.985812512  -0.000000000
   0.492906256   0.492906256   0.265708644

ATOMIC_POSITIONS (crystal)
Sn       0.625000000   0.875000000   0.750000000
Sn       0.375000000   0.125000000   0.250000000



     Writing output data file sn.beta.relax.save
     NEW-OLD atomic charge density approx. for the potential
     extrapolated charge   27.99285, renormalised to   28.00000

     total cpu time spent up to now is     3640.9 secs

     per-process dynamical memory:   140.1 Mb

     Self-consistent Calculation

     iteration #  1     ecut=    50.00 Ry     beta=0.70
     Davidson diagonalization with overlap
     ethr =  1.00E-06,  avg # of iterations =  2.0

     Threshold (ethr) on eigenvalues was too large:
     Diagonalizing with lowered threshold

     Davidson diagonalization with overlap
     ethr =  2.17E-08,  avg # of iterations =  1.0

     total cpu time spent up to now is     3765.2 secs

     total energy              =    -318.48240247 Ry
     Harris-Foulkes estimate   =    -318.50774234 Ry
     estimated scf accuracy    <       0.00000613 Ry

     iteration #  2     ecut=    50.00 Ry     beta=0.70
     Davidson diagonalization with overlap
     ethr =  2.19E-08,  avg # of iterations =  3.0

     total cpu time spent up to now is     3850.1 secs

     total energy              =    -318.48241183 Ry
     Harris-Foulkes estimate   =    -318.48241628 Ry
     estimated scf accuracy    <       0.00000905 Ry

     iteration #  3     ecut=    50.00 Ry     beta=0.70
     Davidson diagonalization with overlap
     ethr =  2.19E-08,  avg # of iterations =  2.0

     total cpu time spent up to now is     3914.0 secs

     total energy              =    -318.48241198 Ry
     Harris-Foulkes estimate   =    -318.48241262 Ry
     estimated scf accuracy    <       0.00000138 Ry

     iteration #  4     ecut=    50.00 Ry     beta=0.70
     Davidson diagonalization with overlap
     ethr =  4.92E-09,  avg # of iterations =  1.6

     total cpu time spent up to now is     3968.2 secs

     total energy              =    -318.48241192 Ry
     Harris-Foulkes estimate   =    -318.48241209 Ry
     estimated scf accuracy    <       0.00000027 Ry

     iteration #  5     ecut=    50.00 Ry     beta=0.70
     Davidson diagonalization with overlap
     ethr =  9.62E-10,  avg # of iterations =  3.0

     total cpu time spent up to now is     4045.3 secs

     total energy              =    -318.48241199 Ry
     Harris-Foulkes estimate   =    -318.48241199 Ry
     estimated scf accuracy    <          4.8E-09 Ry

     iteration #  6     ecut=    50.00 Ry     beta=0.70
     Davidson diagonalization with overlap
     ethr =  1.70E-11,  avg # of iterations =  3.0

     total cpu time spent up to now is     4123.4 secs

     total energy              =    -318.48241199 Ry
     Harris-Foulkes estimate   =    -318.48241199 Ry
     estimated scf accuracy    <          2.4E-09 Ry

     iteration #  7     ecut=    50.00 Ry     beta=0.70
     Davidson diagonalization with overlap
     ethr =  8.42E-12,  avg # of iterations =  2.0

     total cpu time spent up to now is     4193.5 secs

     total energy              =    -318.48241199 Ry
     Harris-Foulkes estimate   =    -318.48241199 Ry
     estimated scf accuracy    <          4.0E-11 Ry

     iteration #  8     ecut=    50.00 Ry     beta=0.70
     Davidson diagonalization with overlap
     ethr =  1.43E-13,  avg # of iterations =  1.3

     total cpu time spent up to now is     4247.0 secs

     total energy              =    -318.48241199 Ry
     Harris-Foulkes estimate   =    -318.48241199 Ry
     estimated scf accuracy    <          4.7E-11 Ry

     iteration #  9     ecut=    50.00 Ry     beta=0.70
     Davidson diagonalization with overlap
     ethr =  1.43E-13,  avg # of iterations =  2.0

     total cpu time spent up to now is     4315.4 secs

     total energy              =    -318.48241199 Ry
     Harris-Foulkes estimate   =    -318.48241199 Ry
     estimated scf accuracy    <          3.9E-12 Ry

     iteration # 10     ecut=    50.00 Ry     beta=0.70
     Davidson diagonalization with overlap
     ethr =  1.00E-13,  avg # of iterations =  1.0

     total cpu time spent up to now is     4368.1 secs

     End of self-consistent calculation

     Number of k-points >= 100: set verbosity='high' to print the bands.

     the Fermi energy is    10.7347 ev

!    total energy              =    -318.48241199 Ry
     Harris-Foulkes estimate   =    -318.48241199 Ry
     estimated scf accuracy    <          7.6E-13 Ry

     The total energy is the sum of the following terms:

     one-electron contribution =    -111.25560325 Ry
     hartree contribution      =      76.06738728 Ry
     xc contribution           =     -86.02697717 Ry
     ewald contribution        =    -197.26739519 Ry
     smearing contrib. (-TS)   =       0.00017634 Ry

     convergence has been achieved in  10 iterations

     Forces acting on atoms (cartesian axes, Ry/au):

     atom    1 type  1   force =     0.00000000    0.00000000    0.00000000
     atom    2 type  1   force =     0.00000000    0.00000000    0.00000000

     Total force =     0.000000     Total SCF correction =     0.000000


     Computing stress (Cartesian axis) and pressure

          total   stress  (Ry/bohr**3)                   (kbar)     P=   -0.13
  -0.00000103  -0.00000000  -0.00000000         -0.15     -0.00     -0.00
  -0.00000000  -0.00000103  -0.00000000         -0.00     -0.15     -0.00
  -0.00000000  -0.00000000  -0.00000066         -0.00     -0.00     -0.10


     bfgs converged in   6 scf cycles and   5 bfgs steps
     (criteria: energy <  1.0E-04 Ry, force <  1.0E-03Ry/Bohr, cell <  3.0E-01kbar)

     End of BFGS Geometry Optimization

     Final enthalpy =    -318.4824119903 Ry
Begin final coordinates
     new unit-cell volume =    366.43699 a.u.^3 (    54.30036 Ang^3 )
     density =      7.26045 g/cm^3

CELL_PARAMETERS (alat= 11.23746432)
   0.985812512   0.000000000  -0.000000000
  -0.000000000   0.985812512  -0.000000000
   0.492906256   0.492906256   0.265708644

ATOMIC_POSITIONS (crystal)
Sn       0.625000000   0.875000000   0.750000000
Sn       0.375000000   0.125000000   0.250000000
End final coordinates



     A final scf calculation at the relaxed structure.
     The G-vectors are recalculated for the final unit cell
     Results may differ from those at the preceding step.

     Parallelization info
     --------------------
     sticks:   dense  smooth     PW     G-vecs:    dense   smooth      PW
     Min        1220     485    198                17269     4372    1154
     Max        1221     486    199                17270     4373    1155
     Sum        4881    1941    793                69077    17489    4617



     bravais-lattice index     =            0
     lattice parameter (alat)  =      11.2375  a.u.
     unit-cell volume          =     366.4370 (a.u.)^3
     number of atoms/cell      =            2
     number of atomic types    =            1
     number of electrons       =        28.00
     number of Kohn-Sham states=           18
     kinetic-energy cutoff     =      50.0000  Ry
     charge density cutoff     =     500.0000  Ry
     convergence threshold     =      1.0E-12
     mixing beta               =       0.7000
     number of iterations used =            8  plain     mixing
     Exchange-correlation      =  SLA  PW   PBX  PBC ( 1  4  3  4 0 0)

     celldm(1)=  11.237464  celldm(2)=   0.000000  celldm(3)=   0.000000
     celldm(4)=   0.000000  celldm(5)=   0.000000  celldm(6)=   0.000000

     crystal axes: (cart. coord. in units of alat)
               a(1) = (   0.985813   0.000000  -0.000000 )  
               a(2) = (  -0.000000   0.985813  -0.000000 )  
               a(3) = (   0.492906   0.492906   0.265709 )  

     reciprocal axes: (cart. coord. in units 2 pi/alat)
               b(1) = (  1.014392 -0.000000 -1.881760 )  
               b(2) = ( -0.000000  1.014392 -1.881760 )  
               b(3) = (  0.000000  0.000000  3.763521 )  


     PseudoPot. # 1 for Sn read from file:
     /home/s1333534/quantum_espresso/qe-6.1/pseudo/sn_pbe_v1.4.uspp.F.UPF
     MD5 check sum: 469debedee59599fedebd795477fea03
     Pseudo is Ultrasoft + core correction, Zval = 14.0
     Generated by new atomic code, or converted to UPF format
     Using radial grid of  891 points,  6 beta functions with: 
                l(1) =   0
                l(2) =   0
                l(3) =   1
                l(4) =   1
                l(5) =   2
                l(6) =   2
     Q(r) pseudized with  8 coefficients,  rinner =    1.350   1.350   1.350
                                                       1.350   1.350

     atomic species   valence    mass     pseudopotential
        Sn            14.00   118.71000     Sn( 1.00)

     16 Sym. Ops., with inversion, found (12 have fractional translation)



   Cartesian axes

     site n.     atom                  positions (alat units)
         1           Sn  tau(   1) = (   0.9858125   1.2322656   0.1992815  )
         2           Sn  tau(   2) = (   0.4929063   0.2464531   0.0664272  )

     number of k points=   687  Marzari-Vanderbilt smearing, width (Ry)=  0.0200

     Number of k-points >= 100: set verbosity='high' to print them.

     Dense  grid:    69077 G-vectors     FFT dimensions: (  80,  80,  60)

     Smooth grid:    17489 G-vectors     FFT dimensions: (  50,  50,  40)

     Estimated max dynamical RAM per process >     118.44MB

     Estimated total allocated dynamical RAM >     473.78MB

     Initial potential from superposition of free atoms

     starting charge   25.99991, renormalised to   28.00000
     Starting wfc are   18 randomized atomic wfcs

     Writing output data file sn.beta.relax.save

     total cpu time spent up to now is     4393.9 secs

     per-process dynamical memory:   143.2 Mb

     Self-consistent Calculation

     iteration #  1     ecut=    50.00 Ry     beta=0.70
     Davidson diagonalization with overlap
     c_bands:  1 eigenvalues not converged
     c_bands:  1 eigenvalues not converged
     c_bands:  1 eigenvalues not converged
     c_bands:  1 eigenvalues not converged
     c_bands:  1 eigenvalues not converged
     c_bands:  1 eigenvalues not converged
     c_bands:  1 eigenvalues not converged
     c_bands:  2 eigenvalues not converged
     c_bands:  1 eigenvalues not converged
     c_bands:  1 eigenvalues not converged
     c_bands:  1 eigenvalues not converged
     ethr =  1.00E-06,  avg # of iterations = 11.1

     total cpu time spent up to now is     4527.6 secs

     total energy              =    -317.55712247 Ry
     Harris-Foulkes estimate   =    -319.49920362 Ry
     estimated scf accuracy    <       2.37847662 Ry

     iteration #  2     ecut=    50.00 Ry     beta=0.70
     Davidson diagonalization with overlap
     ethr =  8.49E-03,  avg # of iterations =  2.7

     total cpu time spent up to now is     4586.3 secs

     total energy              =    -318.39984507 Ry
     Harris-Foulkes estimate   =    -318.67633135 Ry
     estimated scf accuracy    <       0.40210367 Ry

     iteration #  3     ecut=    50.00 Ry     beta=0.70
     Davidson diagonalization with overlap
     ethr =  1.44E-03,  avg # of iterations =  2.0

     total cpu time spent up to now is     4641.5 secs

     total energy              =    -318.48202920 Ry
     Harris-Foulkes estimate   =    -318.48316030 Ry
     estimated scf accuracy    <       0.00208997 Ry

     iteration #  4     ecut=    50.00 Ry     beta=0.70
     Davidson diagonalization with overlap
     ethr =  7.46E-06,  avg # of iterations =  3.5

     total cpu time spent up to now is     4704.0 secs

     total energy              =    -318.48251788 Ry
     Harris-Foulkes estimate   =    -318.48259295 Ry
     estimated scf accuracy    <       0.00011058 Ry

     iteration #  5     ecut=    50.00 Ry     beta=0.70
     Davidson diagonalization with overlap
     ethr =  3.95E-07,  avg # of iterations =  2.0

     total cpu time spent up to now is     4760.7 secs

     total energy              =    -318.48254552 Ry
     Harris-Foulkes estimate   =    -318.48254544 Ry
     estimated scf accuracy    <       0.00000013 Ry

     iteration #  6     ecut=    50.00 Ry     beta=0.70
     Davidson diagonalization with overlap
     ethr =  4.64E-10,  avg # of iterations =  3.9

     total cpu time spent up to now is     4833.3 secs

     total energy              =    -318.48254569 Ry
     Harris-Foulkes estimate   =    -318.48254570 Ry
     estimated scf accuracy    <          7.8E-09 Ry

     iteration #  7     ecut=    50.00 Ry     beta=0.70
     Davidson diagonalization with overlap
     ethr =  2.78E-11,  avg # of iterations =  2.2

     total cpu time spent up to now is     4889.4 secs

     total energy              =    -318.48254570 Ry
     Harris-Foulkes estimate   =    -318.48254570 Ry
     estimated scf accuracy    <          4.0E-11 Ry

     iteration #  8     ecut=    50.00 Ry     beta=0.70
     Davidson diagonalization with overlap
     ethr =  1.42E-13,  avg # of iterations =  3.0

     total cpu time spent up to now is     4941.9 secs

     total energy              =    -318.48254570 Ry
     Harris-Foulkes estimate   =    -318.48254570 Ry
     estimated scf accuracy    <          1.7E-12 Ry

     iteration #  9     ecut=    50.00 Ry     beta=0.70
     Davidson diagonalization with overlap
     ethr =  1.00E-13,  avg # of iterations =  1.0

     total cpu time spent up to now is     4984.3 secs

     End of self-consistent calculation

     Number of k-points >= 100: set verbosity='high' to print the bands.

     the Fermi energy is    10.7347 ev

!    total energy              =    -318.48254570 Ry
     Harris-Foulkes estimate   =    -318.48254570 Ry
     estimated scf accuracy    <          2.0E-13 Ry

     The total energy is the sum of the following terms:

     one-electron contribution =    -111.25573939 Ry
     hartree contribution      =      76.06737084 Ry
     xc contribution           =     -86.02695830 Ry
     ewald contribution        =    -197.26739519 Ry
     smearing contrib. (-TS)   =       0.00017634 Ry

     convergence has been achieved in   9 iterations

     Forces acting on atoms (cartesian axes, Ry/au):

     atom    1 type  1   force =    -0.00000000   -0.00000000   -0.00000000
     atom    2 type  1   force =     0.00000000    0.00000000    0.00000000

     Total force =     0.000000     Total SCF correction =     0.000000


     Computing stress (Cartesian axis) and pressure

          total   stress  (Ry/bohr**3)                   (kbar)     P=   -0.03
  -0.00000076  -0.00000000  -0.00000000         -0.11     -0.00     -0.00
  -0.00000000  -0.00000076   0.00000000         -0.00     -0.11      0.00
  -0.00000000   0.00000000   0.00000094         -0.00      0.00      0.14


     Writing output data file sn.beta.relax.save

     init_run     :     39.36s CPU     40.41s WALL (       2 calls)
     electrons    :   4779.32s CPU   4886.26s WALL (       7 calls)
     update_pot   :      6.14s CPU      6.22s WALL (       5 calls)
     forces       :     11.34s CPU     11.48s WALL (       7 calls)
     stress       :     40.75s CPU     41.03s WALL (       7 calls)

     Called by init_run:
     wfcinit      :     36.77s CPU     37.76s WALL (       2 calls)
     potinit      :      0.57s CPU      0.59s WALL (       2 calls)

     Called by electrons:
     c_bands      :   3869.96s CPU   3958.13s WALL (      73 calls)
     sum_band     :    892.68s CPU    910.53s WALL (      73 calls)
     v_of_rho     :     10.43s CPU     10.76s WALL (      78 calls)
     newd         :      5.62s CPU      6.19s WALL (      78 calls)
     mix_rho      :      1.10s CPU      1.16s WALL (      73 calls)

     Called by c_bands:
     init_us_2    :     33.98s CPU     34.55s WALL (  111294 calls)
     cegterg      :   3804.63s CPU   3891.72s WALL (   50151 calls)

     Called by sum_band:
     sum_band:bec :      0.73s CPU      0.75s WALL (   50151 calls)
     addusdens    :      6.90s CPU      7.84s WALL (      73 calls)

     Called by *egterg:
     h_psi        :   3566.90s CPU   3650.13s WALL (  163119 calls)
     s_psi        :     21.36s CPU     21.89s WALL (  163119 calls)
     g_psi        :      6.59s CPU      6.71s WALL (  111594 calls)
     cdiaghg      :     93.34s CPU     95.06s WALL (  156936 calls)

     Called by h_psi:
     h_psi:pot    :   3553.63s CPU   3636.57s WALL (  163119 calls)
     h_psi:calbec :     46.96s CPU     48.10s WALL (  163119 calls)
     vloc_psi     :   3475.98s CPU   3557.10s WALL (  163119 calls)
     add_vuspsi   :     29.88s CPU     30.60s WALL (  163119 calls)

     General routines
     calbec       :     67.91s CPU     69.47s WALL (  237315 calls)
     fft          :      9.01s CPU      9.57s WALL (    1408 calls)
     ffts         :      0.12s CPU      0.12s WALL (     151 calls)
     fftw         :   2461.40s CPU   2521.05s WALL ( 5793606 calls)
     interpolate  :      1.27s CPU      1.33s WALL (     151 calls)
     davcio       :      0.03s CPU      0.10s WALL (    1374 calls)

     Parallel routines
     fft_scatter  :    527.63s CPU    543.98s WALL ( 5795165 calls)

     PWSCF        :     1h21m CPU        1h23m WALL


   This run was terminated on:  13:43:21  22Jan2018            

=------------------------------------------------------------------------------=
   JOB DONE.
=------------------------------------------------------------------------------=
