
     Program PWSCF v.6.1 (svn rev. 13369) starts on 22Jan2018 at 13:13:13 

     This program is part of the open-source Quantum ESPRESSO suite
     for quantum simulation of materials; please cite
         "P. Giannozzi et al., J. Phys.:Condens. Matter 21 395502 (2009);
          URL http://www.quantum-espresso.org", 
     in publications or presentations arising from this work. More details at
     http://www.quantum-espresso.org/quote

     Parallel version (MPI), running on     4 processors
     R & G space division:  proc/nbgrp/npool/nimage =       4
     Waiting for input...
     Reading input from standard input

     Current dimensions of program PWSCF are:
     Max number of different atomic species (ntypx) = 10
     Max number of k-points (npk) =  40000
     Max angular momentum in pseudopotentials (lmaxx) =  3

     Subspace diagonalization in iterative solution of the eigenvalue problem:
     a serial algorithm will be used


     Parallelization info
     --------------------
     sticks:   dense  smooth     PW     G-vecs:    dense   smooth      PW
     Min         526     264     78                16105     5664     958
     Max         527     265     79                16110     5665     963
     Sum        2107    1057    313                64431    22659    3839



     bravais-lattice index     =            2
     lattice parameter (alat)  =      12.3930  a.u.
     unit-cell volume          =     475.8507 (a.u.)^3
     number of atoms/cell      =            2
     number of atomic types    =            1
     number of electrons       =        28.00
     number of Kohn-Sham states=           14
     kinetic-energy cutoff     =      50.0000  Ry
     charge density cutoff     =     400.0000  Ry
     convergence threshold     =      1.0E-10
     mixing beta               =       0.7000
     number of iterations used =            8  plain     mixing
     Exchange-correlation      =  SLA  PW   PBX  PBC ( 1  4  3  4 0 0)
     nstep                     =           50


     celldm(1)=  12.393013  celldm(2)=   0.000000  celldm(3)=   0.000000
     celldm(4)=   0.000000  celldm(5)=   0.000000  celldm(6)=   0.000000

     crystal axes: (cart. coord. in units of alat)
               a(1) = (  -0.500000   0.000000   0.500000 )  
               a(2) = (   0.000000   0.500000   0.500000 )  
               a(3) = (  -0.500000   0.500000   0.000000 )  

     reciprocal axes: (cart. coord. in units 2 pi/alat)
               b(1) = ( -1.000000 -1.000000  1.000000 )  
               b(2) = (  1.000000  1.000000  1.000000 )  
               b(3) = ( -1.000000  1.000000 -1.000000 )  


     PseudoPot. # 1 for Sn read from file:
     /home/s1333534/quantum_espresso/qe-6.1/pseudo/sn_pbe_v1.4.uspp.F.UPF
     MD5 check sum: 469debedee59599fedebd795477fea03
     Pseudo is Ultrasoft + core correction, Zval = 14.0
     Generated by new atomic code, or converted to UPF format
     Using radial grid of  891 points,  6 beta functions with: 
                l(1) =   0
                l(2) =   0
                l(3) =   1
                l(4) =   1
                l(5) =   2
                l(6) =   2
     Q(r) pseudized with  8 coefficients,  rinner =    1.350   1.350   1.350
                                                       1.350   1.350

     atomic species   valence    mass     pseudopotential
        Sn            14.00   118.71000     Sn( 1.00)

     48 Sym. Ops., with inversion, found (24 have fractional translation)



   Cartesian axes

     site n.     atom                  positions (alat units)
         1           Sn  tau(   1) = (   0.0000000   0.0000000   0.0000000  )
         2           Sn  tau(   2) = (  -0.2500000   0.2500000   0.2500000  )

     number of k points=   408

     Number of k-points >= 100: set verbosity='high' to print them.

     Dense  grid:    64431 G-vectors     FFT dimensions: (  60,  60,  60)

     Smooth grid:    22659 G-vectors     FFT dimensions: (  40,  40,  40)

     Estimated max dynamical RAM per process >      73.82MB

     Estimated total allocated dynamical RAM >     295.29MB

     Initial potential from superposition of free atoms

     starting charge   25.99991, renormalised to   28.00000
     Starting wfc are   18 randomized atomic wfcs

     total cpu time spent up to now is        6.9 secs

     per-process dynamical memory:    85.3 Mb

     Self-consistent Calculation

     iteration #  1     ecut=    50.00 Ry     beta=0.70
     Davidson diagonalization with overlap
     ethr =  1.00E-02,  avg # of iterations =  2.8

     total cpu time spent up to now is       22.2 secs

     total energy              =    -317.48928412 Ry
     Harris-Foulkes estimate   =    -319.53987639 Ry
     estimated scf accuracy    <       2.49883602 Ry

     iteration #  2     ecut=    50.00 Ry     beta=0.70
     Davidson diagonalization with overlap
     ethr =  8.92E-03,  avg # of iterations =  3.0

     total cpu time spent up to now is       38.7 secs

     total energy              =    -318.39309832 Ry
     Harris-Foulkes estimate   =    -318.71030304 Ry
     estimated scf accuracy    <       0.47300244 Ry

     iteration #  3     ecut=    50.00 Ry     beta=0.70
     Davidson diagonalization with overlap
     ethr =  1.69E-03,  avg # of iterations =  2.0

     total cpu time spent up to now is       53.1 secs

     total energy              =    -318.48780513 Ry
     Harris-Foulkes estimate   =    -318.48937867 Ry
     estimated scf accuracy    <       0.00288298 Ry

     iteration #  4     ecut=    50.00 Ry     beta=0.70
     Davidson diagonalization with overlap
     ethr =  1.03E-05,  avg # of iterations =  3.0

     total cpu time spent up to now is       68.7 secs

     total energy              =    -318.48869651 Ry
     Harris-Foulkes estimate   =    -318.48881477 Ry
     estimated scf accuracy    <       0.00017563 Ry

     iteration #  5     ecut=    50.00 Ry     beta=0.70
     Davidson diagonalization with overlap
     ethr =  6.27E-07,  avg # of iterations =  3.0

     total cpu time spent up to now is       84.4 secs

     total energy              =    -318.48874984 Ry
     Harris-Foulkes estimate   =    -318.48875048 Ry
     estimated scf accuracy    <       0.00000140 Ry

     iteration #  6     ecut=    50.00 Ry     beta=0.70
     Davidson diagonalization with overlap
     ethr =  4.99E-09,  avg # of iterations =  3.9

     total cpu time spent up to now is      101.6 secs

     total energy              =    -318.48875060 Ry
     Harris-Foulkes estimate   =    -318.48875065 Ry
     estimated scf accuracy    <       0.00000008 Ry

     iteration #  7     ecut=    50.00 Ry     beta=0.70
     Davidson diagonalization with overlap
     ethr =  2.98E-10,  avg # of iterations =  3.0

     total cpu time spent up to now is      117.7 secs

     total energy              =    -318.48875063 Ry
     Harris-Foulkes estimate   =    -318.48875063 Ry
     estimated scf accuracy    <          2.2E-09 Ry

     iteration #  8     ecut=    50.00 Ry     beta=0.70
     Davidson diagonalization with overlap
     ethr =  7.74E-12,  avg # of iterations =  3.4

     total cpu time spent up to now is      131.6 secs

     End of self-consistent calculation

     Number of k-points >= 100: set verbosity='high' to print the bands.

     highest occupied level (ev):     7.5176

!    total energy              =    -318.48875063 Ry
     Harris-Foulkes estimate   =    -318.48875063 Ry
     estimated scf accuracy    <          4.8E-11 Ry

     The total energy is the sum of the following terms:

     one-electron contribution =    -158.18560273 Ry
     hartree contribution      =      96.08838091 Ry
     xc contribution           =     -86.00319583 Ry
     ewald contribution        =    -170.38833297 Ry

     convergence has been achieved in   8 iterations

     Forces acting on atoms (cartesian axes, Ry/au):

     atom    1 type  1   force =     0.00000000    0.00000000    0.00000000
     atom    2 type  1   force =     0.00000000    0.00000000    0.00000000

     Total force =     0.000000     Total SCF correction =     0.000000


     Computing stress (Cartesian axis) and pressure

          total   stress  (Ry/bohr**3)                   (kbar)     P=   -1.17
  -0.00000797   0.00000000   0.00000000         -1.17      0.00      0.00
   0.00000000  -0.00000797   0.00000000          0.00     -1.17      0.00
  -0.00000000   0.00000000  -0.00000797         -0.00      0.00     -1.17


     BFGS Geometry Optimization

     number of scf cycles    =   1
     number of bfgs steps    =   0

     enthalpy new            =    -318.4887506317 Ry

     new trust radius        =       0.0008694259 bohr
     new conv_thr            =            1.0E-10 Ry

     new unit-cell volume =    475.56629 a.u.^3 (    70.47165 Ang^3 )
     density =      5.59438 g/cm^3

CELL_PARAMETERS (alat= 12.39301305)
  -0.499900359   0.000000000   0.499900359
   0.000000000   0.499900359   0.499900359
  -0.499900359   0.499900359   0.000000000

ATOMIC_POSITIONS (crystal)
Sn       0.000000000   0.000000000   0.000000000
Sn       0.250000000   0.250000000   0.250000000



     Writing output data file sn.alpha.relax.save
     NEW-OLD atomic charge density approx. for the potential
     extrapolated charge   27.98445, renormalised to   28.00000

     total cpu time spent up to now is      138.9 secs

     per-process dynamical memory:    91.8 Mb

     Self-consistent Calculation

     iteration #  1     ecut=    50.00 Ry     beta=0.70
     Davidson diagonalization with overlap
     ethr =  1.00E-06,  avg # of iterations =  2.0

     total cpu time spent up to now is      153.3 secs

     total energy              =    -318.48869536 Ry
     Harris-Foulkes estimate   =    -318.56608160 Ry
     estimated scf accuracy    <       0.00003698 Ry

     iteration #  2     ecut=    50.00 Ry     beta=0.70
     Davidson diagonalization with overlap
     ethr =  1.32E-07,  avg # of iterations =  3.7

     total cpu time spent up to now is      172.7 secs

     total energy              =    -318.48875153 Ry
     Harris-Foulkes estimate   =    -318.48877895 Ry
     estimated scf accuracy    <       0.00005772 Ry

     iteration #  3     ecut=    50.00 Ry     beta=0.70
     Davidson diagonalization with overlap
     ethr =  1.32E-07,  avg # of iterations =  2.0

     total cpu time spent up to now is      186.6 secs

     total energy              =    -318.48875434 Ry
     Harris-Foulkes estimate   =    -318.48875636 Ry
     estimated scf accuracy    <       0.00000922 Ry

     iteration #  4     ecut=    50.00 Ry     beta=0.70
     Davidson diagonalization with overlap
     ethr =  3.29E-08,  avg # of iterations =  1.7

     total cpu time spent up to now is      197.7 secs

     total energy              =    -318.48875232 Ry
     Harris-Foulkes estimate   =    -318.48875460 Ry
     estimated scf accuracy    <       0.00000500 Ry

     iteration #  5     ecut=    50.00 Ry     beta=0.70
     Davidson diagonalization with overlap
     ethr =  1.79E-08,  avg # of iterations =  1.8

     total cpu time spent up to now is      209.2 secs

     total energy              =    -318.48875247 Ry
     Harris-Foulkes estimate   =    -318.48875273 Ry
     estimated scf accuracy    <       0.00000091 Ry

     iteration #  6     ecut=    50.00 Ry     beta=0.70
     Davidson diagonalization with overlap
     ethr =  3.27E-09,  avg # of iterations =  2.1

     total cpu time spent up to now is      223.4 secs

     total energy              =    -318.48875244 Ry
     Harris-Foulkes estimate   =    -318.48875266 Ry
     estimated scf accuracy    <       0.00000027 Ry

     iteration #  7     ecut=    50.00 Ry     beta=0.70
     Davidson diagonalization with overlap
     ethr =  9.55E-10,  avg # of iterations =  3.1

     total cpu time spent up to now is      240.9 secs

     total energy              =    -318.48875254 Ry
     Harris-Foulkes estimate   =    -318.48875261 Ry
     estimated scf accuracy    <       0.00000013 Ry

     iteration #  8     ecut=    50.00 Ry     beta=0.70
     Davidson diagonalization with overlap
     ethr =  4.59E-10,  avg # of iterations =  1.3

     total cpu time spent up to now is      251.8 secs

     total energy              =    -318.48875254 Ry
     Harris-Foulkes estimate   =    -318.48875255 Ry
     estimated scf accuracy    <       0.00000002 Ry

     iteration #  9     ecut=    50.00 Ry     beta=0.70
     Davidson diagonalization with overlap
     ethr =  7.43E-11,  avg # of iterations =  3.0

     total cpu time spent up to now is      269.8 secs

     total energy              =    -318.48875255 Ry
     Harris-Foulkes estimate   =    -318.48875255 Ry
     estimated scf accuracy    <          1.1E-10 Ry

     iteration # 10     ecut=    50.00 Ry     beta=0.70
     Davidson diagonalization with overlap
     ethr =  3.82E-13,  avg # of iterations =  4.0

     total cpu time spent up to now is      289.7 secs

     total energy              =    -318.48875255 Ry
     Harris-Foulkes estimate   =    -318.48875255 Ry
     estimated scf accuracy    <          1.8E-09 Ry

     iteration # 11     ecut=    50.00 Ry     beta=0.70
     Davidson diagonalization with overlap
     ethr =  3.82E-13,  avg # of iterations =  4.0

     total cpu time spent up to now is      309.5 secs

     End of self-consistent calculation

     Number of k-points >= 100: set verbosity='high' to print the bands.

     highest occupied level (ev):     7.5250

!    total energy              =    -318.48875255 Ry
     Harris-Foulkes estimate   =    -318.48875255 Ry
     estimated scf accuracy    <          6.9E-11 Ry

     The total energy is the sum of the following terms:

     one-electron contribution =    -158.13027826 Ry
     hartree contribution      =      96.06759892 Ry
     xc contribution           =     -86.00377822 Ry
     ewald contribution        =    -170.42229500 Ry

     convergence has been achieved in  11 iterations

     Forces acting on atoms (cartesian axes, Ry/au):

     atom    1 type  1   force =     0.00000000    0.00000000    0.00000000
     atom    2 type  1   force =     0.00000000    0.00000000    0.00000000

     Total force =     0.000000     Total SCF correction =     0.000000


     Computing stress (Cartesian axis) and pressure

          total   stress  (Ry/bohr**3)                   (kbar)     P=   -0.86
  -0.00000586  -0.00000000  -0.00000000         -0.86     -0.00     -0.00
  -0.00000000  -0.00000586   0.00000000         -0.00     -0.86      0.00
  -0.00000000   0.00000000  -0.00000586         -0.00      0.00     -0.86


     number of scf cycles    =   2
     number of bfgs steps    =   1

     enthalpy old            =    -318.4887506317 Ry
     enthalpy new            =    -318.4887525491 Ry

     CASE: enthalpy_new < enthalpy_old

     new trust radius        =       0.0013040089 bohr
     new conv_thr            =            1.0E-12 Ry

     new unit-cell volume =    475.13986 a.u.^3 (    70.40846 Ang^3 )
     density =      5.59940 g/cm^3

CELL_PARAMETERS (alat= 12.39301305)
  -0.499750898   0.000000000   0.499750898
  -0.000000000   0.499750898   0.499750898
  -0.499750898   0.499750898   0.000000000

ATOMIC_POSITIONS (crystal)
Sn       0.000000000   0.000000000   0.000000000
Sn       0.250000000   0.250000000   0.250000000



     Writing output data file sn.alpha.relax.save
     NEW-OLD atomic charge density approx. for the potential
     extrapolated charge   27.97667, renormalised to   28.00000

     total cpu time spent up to now is      317.0 secs

     per-process dynamical memory:    91.8 Mb

     Self-consistent Calculation

     iteration #  1     ecut=    50.00 Ry     beta=0.70
     Davidson diagonalization with overlap
     ethr =  1.00E-06,  avg # of iterations =  2.0

     total cpu time spent up to now is      331.6 secs

     total energy              =    -318.48862586 Ry
     Harris-Foulkes estimate   =    -318.60474162 Ry
     estimated scf accuracy    <       0.00008312 Ry

     iteration #  2     ecut=    50.00 Ry     beta=0.70
     Davidson diagonalization with overlap
     ethr =  2.97E-07,  avg # of iterations =  3.7

     total cpu time spent up to now is      351.1 secs

     total energy              =    -318.48875215 Ry
     Harris-Foulkes estimate   =    -318.48881380 Ry
     estimated scf accuracy    <       0.00012981 Ry

     iteration #  3     ecut=    50.00 Ry     beta=0.70
     Davidson diagonalization with overlap
     ethr =  2.97E-07,  avg # of iterations =  2.0

     total cpu time spent up to now is      365.0 secs

     total energy              =    -318.48875846 Ry
     Harris-Foulkes estimate   =    -318.48876302 Ry
     estimated scf accuracy    <       0.00002073 Ry

     iteration #  4     ecut=    50.00 Ry     beta=0.70
     Davidson diagonalization with overlap
     ethr =  7.41E-08,  avg # of iterations =  1.7

     total cpu time spent up to now is      376.2 secs

     total energy              =    -318.48875393 Ry
     Harris-Foulkes estimate   =    -318.48875905 Ry
     estimated scf accuracy    <       0.00001122 Ry

     iteration #  5     ecut=    50.00 Ry     beta=0.70
     Davidson diagonalization with overlap
     ethr =  4.01E-08,  avg # of iterations =  1.8

     total cpu time spent up to now is      387.6 secs

     total energy              =    -318.48875428 Ry
     Harris-Foulkes estimate   =    -318.48875485 Ry
     estimated scf accuracy    <       0.00000204 Ry

     iteration #  6     ecut=    50.00 Ry     beta=0.70
     Davidson diagonalization with overlap
     ethr =  7.27E-09,  avg # of iterations =  2.0

     total cpu time spent up to now is      401.8 secs

     total energy              =    -318.48875419 Ry
     Harris-Foulkes estimate   =    -318.48875469 Ry
     estimated scf accuracy    <       0.00000060 Ry

     iteration #  7     ecut=    50.00 Ry     beta=0.70
     Davidson diagonalization with overlap
     ethr =  2.14E-09,  avg # of iterations =  3.1

     total cpu time spent up to now is      419.2 secs

     total energy              =    -318.48875443 Ry
     Harris-Foulkes estimate   =    -318.48875458 Ry
     estimated scf accuracy    <       0.00000029 Ry

     iteration #  8     ecut=    50.00 Ry     beta=0.70
     Davidson diagonalization with overlap
     ethr =  1.05E-09,  avg # of iterations =  1.3

     total cpu time spent up to now is      430.1 secs

     total energy              =    -318.48875442 Ry
     Harris-Foulkes estimate   =    -318.48875445 Ry
     estimated scf accuracy    <       0.00000005 Ry

     iteration #  9     ecut=    50.00 Ry     beta=0.70
     Davidson diagonalization with overlap
     ethr =  1.70E-10,  avg # of iterations =  3.0

     total cpu time spent up to now is      448.1 secs

     total energy              =    -318.48875444 Ry
     Harris-Foulkes estimate   =    -318.48875444 Ry
     estimated scf accuracy    <          2.0E-10 Ry

     iteration # 10     ecut=    50.00 Ry     beta=0.70
     Davidson diagonalization with overlap
     ethr =  7.09E-13,  avg # of iterations =  4.1

     total cpu time spent up to now is      468.0 secs

     total energy              =    -318.48875444 Ry
     Harris-Foulkes estimate   =    -318.48875444 Ry
     estimated scf accuracy    <          4.0E-09 Ry

     iteration # 11     ecut=    50.00 Ry     beta=0.70
     Davidson diagonalization with overlap
     ethr =  7.09E-13,  avg # of iterations =  4.1

     total cpu time spent up to now is      487.8 secs

     total energy              =    -318.48875444 Ry
     Harris-Foulkes estimate   =    -318.48875444 Ry
     estimated scf accuracy    <          1.5E-10 Ry

     iteration # 12     ecut=    50.00 Ry     beta=0.70
     Davidson diagonalization with overlap
     ethr =  5.46E-13,  avg # of iterations =  2.0

     total cpu time spent up to now is      502.4 secs

     total energy              =    -318.48875444 Ry
     Harris-Foulkes estimate   =    -318.48875444 Ry
     estimated scf accuracy    <          2.1E-10 Ry

     iteration # 13     ecut=    50.00 Ry     beta=0.70
     Davidson diagonalization with overlap
     ethr =  5.46E-13,  avg # of iterations =  1.0

     total cpu time spent up to now is      513.1 secs

     total energy              =    -318.48875444 Ry
     Harris-Foulkes estimate   =    -318.48875444 Ry
     estimated scf accuracy    <          1.5E-10 Ry

     iteration # 14     ecut=    50.00 Ry     beta=0.70
     Davidson diagonalization with overlap
     ethr =  5.41E-13,  avg # of iterations =  2.0

     total cpu time spent up to now is      524.9 secs

     total energy              =    -318.48875444 Ry
     Harris-Foulkes estimate   =    -318.48875444 Ry
     estimated scf accuracy    <          2.7E-11 Ry

     iteration # 15     ecut=    50.00 Ry     beta=0.70
     Davidson diagonalization with overlap
     ethr =  1.00E-13,  avg # of iterations =  2.2

     total cpu time spent up to now is      538.3 secs

     total energy              =    -318.48875444 Ry
     Harris-Foulkes estimate   =    -318.48875444 Ry
     estimated scf accuracy    <          2.7E-12 Ry

     iteration # 16     ecut=    50.00 Ry     beta=0.70
     Davidson diagonalization with overlap
     ethr =  1.00E-13,  avg # of iterations =  1.0

     total cpu time spent up to now is      548.9 secs

     total energy              =    -318.48875444 Ry
     Harris-Foulkes estimate   =    -318.48875444 Ry
     estimated scf accuracy    <          3.3E-12 Ry

     iteration # 17     ecut=    50.00 Ry     beta=0.70
     Davidson diagonalization with overlap
     ethr =  1.00E-13,  avg # of iterations =  1.0

     total cpu time spent up to now is      559.6 secs

     End of self-consistent calculation

     Number of k-points >= 100: set verbosity='high' to print the bands.

     highest occupied level (ev):     7.5360

!    total energy              =    -318.48875444 Ry
     Harris-Foulkes estimate   =    -318.48875444 Ry
     estimated scf accuracy    <          5.5E-13 Ry

     The total energy is the sum of the following terms:

     one-electron contribution =    -158.04721555 Ry
     hartree contribution      =      96.03635958 Ry
     xc contribution           =     -86.00463504 Ry
     ewald contribution        =    -170.47326344 Ry

     convergence has been achieved in  17 iterations

     Forces acting on atoms (cartesian axes, Ry/au):

     atom    1 type  1   force =     0.00000000    0.00000000    0.00000000
     atom    2 type  1   force =     0.00000000    0.00000000    0.00000000

     Total force =     0.000000     Total SCF correction =     0.000000


     Computing stress (Cartesian axis) and pressure

          total   stress  (Ry/bohr**3)                   (kbar)     P=   -0.46
  -0.00000313   0.00000000   0.00000000         -0.46      0.00      0.00
   0.00000000  -0.00000313  -0.00000000          0.00     -0.46     -0.00
   0.00000000  -0.00000000  -0.00000313          0.00     -0.00     -0.46


     number of scf cycles    =   3
     number of bfgs steps    =   2

     enthalpy old            =    -318.4887525491 Ry
     enthalpy new            =    -318.4887544432 Ry

     CASE: enthalpy_new < enthalpy_old

     new trust radius        =       0.0014965482 bohr
     new conv_thr            =            1.0E-12 Ry

     new unit-cell volume =    474.65071 a.u.^3 (    70.33598 Ang^3 )
     density =      5.60517 g/cm^3

CELL_PARAMETERS (alat= 12.39301305)
  -0.499579343   0.000000000   0.499579343
  -0.000000000   0.499579343   0.499579343
  -0.499579343   0.499579343   0.000000000

ATOMIC_POSITIONS (crystal)
Sn       0.000000000   0.000000000   0.000000000
Sn       0.250000000   0.250000000   0.250000000



     Writing output data file sn.alpha.relax.save
     NEW-OLD atomic charge density approx. for the potential
     extrapolated charge   27.97321, renormalised to   28.00000

     total cpu time spent up to now is      566.9 secs

     per-process dynamical memory:    91.8 Mb

     Self-consistent Calculation

     iteration #  1     ecut=    50.00 Ry     beta=0.70
     Davidson diagonalization with overlap
     ethr =  1.00E-06,  avg # of iterations =  2.0

     total cpu time spent up to now is      581.5 secs

     total energy              =    -318.48858567 Ry
     Harris-Foulkes estimate   =    -318.62186987 Ry
     estimated scf accuracy    <       0.00010960 Ry

     iteration #  2     ecut=    50.00 Ry     beta=0.70
     Davidson diagonalization with overlap
     ethr =  3.91E-07,  avg # of iterations =  3.7

     total cpu time spent up to now is      600.9 secs

     total energy              =    -318.48875213 Ry
     Harris-Foulkes estimate   =    -318.48883339 Ry
     estimated scf accuracy    <       0.00017110 Ry

     iteration #  3     ecut=    50.00 Ry     beta=0.70
     Davidson diagonalization with overlap
     ethr =  3.91E-07,  avg # of iterations =  2.0

     total cpu time spent up to now is      614.7 secs

     total energy              =    -318.48876047 Ry
     Harris-Foulkes estimate   =    -318.48876645 Ry
     estimated scf accuracy    <       0.00002732 Ry

     iteration #  4     ecut=    50.00 Ry     beta=0.70
     Davidson diagonalization with overlap
     ethr =  9.76E-08,  avg # of iterations =  1.7

     total cpu time spent up to now is      625.9 secs

     total energy              =    -318.48875447 Ry
     Harris-Foulkes estimate   =    -318.48876124 Ry
     estimated scf accuracy    <       0.00001482 Ry

     iteration #  5     ecut=    50.00 Ry     beta=0.70
     Davidson diagonalization with overlap
     ethr =  5.29E-08,  avg # of iterations =  1.8

     total cpu time spent up to now is      637.3 secs

     total energy              =    -318.48875494 Ry
     Harris-Foulkes estimate   =    -318.48875569 Ry
     estimated scf accuracy    <       0.00000267 Ry

     iteration #  6     ecut=    50.00 Ry     beta=0.70
     Davidson diagonalization with overlap
     ethr =  9.54E-09,  avg # of iterations =  2.0

     total cpu time spent up to now is      651.6 secs

     total energy              =    -318.48875483 Ry
     Harris-Foulkes estimate   =    -318.48875548 Ry
     estimated scf accuracy    <       0.00000079 Ry

     iteration #  7     ecut=    50.00 Ry     beta=0.70
     Davidson diagonalization with overlap
     ethr =  2.81E-09,  avg # of iterations =  3.1

     total cpu time spent up to now is      669.0 secs

     total energy              =    -318.48875514 Ry
     Harris-Foulkes estimate   =    -318.48875533 Ry
     estimated scf accuracy    <       0.00000038 Ry

     iteration #  8     ecut=    50.00 Ry     beta=0.70
     Davidson diagonalization with overlap
     ethr =  1.37E-09,  avg # of iterations =  1.3

     total cpu time spent up to now is      679.8 secs

     total energy              =    -318.48875513 Ry
     Harris-Foulkes estimate   =    -318.48875517 Ry
     estimated scf accuracy    <       0.00000006 Ry

     iteration #  9     ecut=    50.00 Ry     beta=0.70
     Davidson diagonalization with overlap
     ethr =  2.24E-10,  avg # of iterations =  3.0

     total cpu time spent up to now is      697.8 secs

     total energy              =    -318.48875516 Ry
     Harris-Foulkes estimate   =    -318.48875516 Ry
     estimated scf accuracy    <          2.9E-10 Ry

     iteration # 10     ecut=    50.00 Ry     beta=0.70
     Davidson diagonalization with overlap
     ethr =  1.03E-12,  avg # of iterations =  4.1

     total cpu time spent up to now is      717.7 secs

     total energy              =    -318.48875516 Ry
     Harris-Foulkes estimate   =    -318.48875516 Ry
     estimated scf accuracy    <          5.6E-09 Ry

     iteration # 11     ecut=    50.00 Ry     beta=0.70
     Davidson diagonalization with overlap
     ethr =  1.03E-12,  avg # of iterations =  4.1

     total cpu time spent up to now is      737.5 secs

     total energy              =    -318.48875516 Ry
     Harris-Foulkes estimate   =    -318.48875516 Ry
     estimated scf accuracy    <          2.1E-10 Ry

     iteration # 12     ecut=    50.00 Ry     beta=0.70
     Davidson diagonalization with overlap
     ethr =  7.68E-13,  avg # of iterations =  2.0

     total cpu time spent up to now is      752.1 secs

     total energy              =    -318.48875516 Ry
     Harris-Foulkes estimate   =    -318.48875516 Ry
     estimated scf accuracy    <          2.8E-10 Ry

     iteration # 13     ecut=    50.00 Ry     beta=0.70
     Davidson diagonalization with overlap
     ethr =  7.68E-13,  avg # of iterations =  1.0

     total cpu time spent up to now is      762.8 secs

     total energy              =    -318.48875516 Ry
     Harris-Foulkes estimate   =    -318.48875516 Ry
     estimated scf accuracy    <          2.0E-10 Ry

     iteration # 14     ecut=    50.00 Ry     beta=0.70
     Davidson diagonalization with overlap
     ethr =  7.21E-13,  avg # of iterations =  2.0

     total cpu time spent up to now is      774.7 secs

     total energy              =    -318.48875516 Ry
     Harris-Foulkes estimate   =    -318.48875516 Ry
     estimated scf accuracy    <          3.4E-11 Ry

     iteration # 15     ecut=    50.00 Ry     beta=0.70
     Davidson diagonalization with overlap
     ethr =  1.22E-13,  avg # of iterations =  2.2

     total cpu time spent up to now is      788.2 secs

     total energy              =    -318.48875516 Ry
     Harris-Foulkes estimate   =    -318.48875516 Ry
     estimated scf accuracy    <          3.6E-12 Ry

     iteration # 16     ecut=    50.00 Ry     beta=0.70
     Davidson diagonalization with overlap
     ethr =  1.00E-13,  avg # of iterations =  1.0

     total cpu time spent up to now is      798.8 secs

     total energy              =    -318.48875516 Ry
     Harris-Foulkes estimate   =    -318.48875516 Ry
     estimated scf accuracy    <          4.6E-12 Ry

     iteration # 17     ecut=    50.00 Ry     beta=0.70
     Davidson diagonalization with overlap
     ethr =  1.00E-13,  avg # of iterations =  1.0

     total cpu time spent up to now is      809.5 secs

     End of self-consistent calculation

     Number of k-points >= 100: set verbosity='high' to print the bands.

     highest occupied level (ev):     7.5487

!    total energy              =    -318.48875516 Ry
     Harris-Foulkes estimate   =    -318.48875516 Ry
     estimated scf accuracy    <          8.4E-13 Ry

     The total energy is the sum of the following terms:

     one-electron contribution =    -157.95183035 Ry
     hartree contribution      =      96.00050369 Ry
     xc contribution           =     -86.00562471 Ry
     ewald contribution        =    -170.53180379 Ry

     convergence has been achieved in  17 iterations

     Forces acting on atoms (cartesian axes, Ry/au):

     atom    1 type  1   force =    -0.00000000    0.00000000    0.00000000
     atom    2 type  1   force =     0.00000000   -0.00000000   -0.00000000

     Total force =     0.000000     Total SCF correction =     0.000000


     Computing stress (Cartesian axis) and pressure

          total   stress  (Ry/bohr**3)                   (kbar)     P=    0.01
   0.00000004   0.00000000  -0.00000000          0.01      0.00     -0.00
   0.00000000   0.00000004  -0.00000000          0.00      0.01     -0.00
  -0.00000000  -0.00000000   0.00000004         -0.00     -0.00      0.01


     bfgs converged in   4 scf cycles and   3 bfgs steps
     (criteria: energy <  1.0E-04 Ry, force <  1.0E-03Ry/Bohr, cell <  3.0E-01kbar)

     End of BFGS Geometry Optimization

     Final enthalpy =    -318.4887551587 Ry
Begin final coordinates
     new unit-cell volume =    474.65071 a.u.^3 (    70.33598 Ang^3 )
     density =      5.60517 g/cm^3

CELL_PARAMETERS (alat= 12.39301305)
  -0.499579343   0.000000000   0.499579343
  -0.000000000   0.499579343   0.499579343
  -0.499579343   0.499579343   0.000000000

ATOMIC_POSITIONS (crystal)
Sn       0.000000000   0.000000000   0.000000000
Sn       0.250000000   0.250000000   0.250000000
End final coordinates



     A final scf calculation at the relaxed structure.
     The G-vectors are recalculated for the final unit cell
     Results may differ from those at the preceding step.

     Parallelization info
     --------------------
     sticks:   dense  smooth     PW     G-vecs:    dense   smooth      PW
     Min         526     264     78                16016     5664     958
     Max         527     265     79                16019     5665     963
     Sum        2107    1057    313                64071    22659    3839



     bravais-lattice index     =            2
     lattice parameter (alat)  =      12.3930  a.u.
     unit-cell volume          =     474.6507 (a.u.)^3
     number of atoms/cell      =            2
     number of atomic types    =            1
     number of electrons       =        28.00
     number of Kohn-Sham states=           14
     kinetic-energy cutoff     =      50.0000  Ry
     charge density cutoff     =     400.0000  Ry
     convergence threshold     =      1.0E-12
     mixing beta               =       0.7000
     number of iterations used =            8  plain     mixing
     Exchange-correlation      =  SLA  PW   PBX  PBC ( 1  4  3  4 0 0)

     celldm(1)=  12.393013  celldm(2)=   0.000000  celldm(3)=   0.000000
     celldm(4)=   0.000000  celldm(5)=   0.000000  celldm(6)=   0.000000

     crystal axes: (cart. coord. in units of alat)
               a(1) = (  -0.499579   0.000000   0.499579 )  
               a(2) = (  -0.000000   0.499579   0.499579 )  
               a(3) = (  -0.499579   0.499579   0.000000 )  

     reciprocal axes: (cart. coord. in units 2 pi/alat)
               b(1) = ( -1.000842 -1.000842  1.000842 )  
               b(2) = (  1.000842  1.000842  1.000842 )  
               b(3) = ( -1.000842  1.000842 -1.000842 )  


     PseudoPot. # 1 for Sn read from file:
     /home/s1333534/quantum_espresso/qe-6.1/pseudo/sn_pbe_v1.4.uspp.F.UPF
     MD5 check sum: 469debedee59599fedebd795477fea03
     Pseudo is Ultrasoft + core correction, Zval = 14.0
     Generated by new atomic code, or converted to UPF format
     Using radial grid of  891 points,  6 beta functions with: 
                l(1) =   0
                l(2) =   0
                l(3) =   1
                l(4) =   1
                l(5) =   2
                l(6) =   2
     Q(r) pseudized with  8 coefficients,  rinner =    1.350   1.350   1.350
                                                       1.350   1.350

     atomic species   valence    mass     pseudopotential
        Sn            14.00   118.71000     Sn( 1.00)

     48 Sym. Ops., with inversion, found (24 have fractional translation)



   Cartesian axes

     site n.     atom                  positions (alat units)
         1           Sn  tau(   1) = (  -0.0000000   0.0000000   0.0000000  )
         2           Sn  tau(   2) = (  -0.2497897   0.2497897   0.2497897  )

     number of k points=   408

     Number of k-points >= 100: set verbosity='high' to print them.

     Dense  grid:    64071 G-vectors     FFT dimensions: (  60,  60,  60)

     Smooth grid:    22659 G-vectors     FFT dimensions: (  40,  40,  40)

     Estimated max dynamical RAM per process >      73.61MB

     Estimated total allocated dynamical RAM >     294.43MB

     Initial potential from superposition of free atoms

     starting charge   25.99991, renormalised to   28.00000
     Starting wfc are   18 randomized atomic wfcs

     Writing output data file sn.alpha.relax.save

     total cpu time spent up to now is      821.7 secs

     per-process dynamical memory:    94.9 Mb

     Self-consistent Calculation

     iteration #  1     ecut=    50.00 Ry     beta=0.70
     Davidson diagonalization with overlap
     c_bands:  1 eigenvalues not converged
     ethr =  1.00E-06,  avg # of iterations =  8.9

     total cpu time spent up to now is      853.7 secs

     total energy              =    -317.45982755 Ry
     Harris-Foulkes estimate   =    -319.54357751 Ry
     estimated scf accuracy    <       2.53989382 Ry

     iteration #  2     ecut=    50.00 Ry     beta=0.70
     Davidson diagonalization with overlap
     ethr =  9.07E-03,  avg # of iterations =  3.0

     total cpu time spent up to now is      870.2 secs

     total energy              =    -318.38825046 Ry
     Harris-Foulkes estimate   =    -318.71975687 Ry
     estimated scf accuracy    <       0.49657392 Ry

     iteration #  3     ecut=    50.00 Ry     beta=0.70
     Davidson diagonalization with overlap
     ethr =  1.77E-03,  avg # of iterations =  2.0

     total cpu time spent up to now is      884.6 secs

     total energy              =    -318.48760026 Ry
     Harris-Foulkes estimate   =    -318.48936584 Ry
     estimated scf accuracy    <       0.00325986 Ry

     iteration #  4     ecut=    50.00 Ry     beta=0.70
     Davidson diagonalization with overlap
     ethr =  1.16E-05,  avg # of iterations =  2.7

     total cpu time spent up to now is      899.7 secs

     total energy              =    -318.48855700 Ry
     Harris-Foulkes estimate   =    -318.48867429 Ry
     estimated scf accuracy    <       0.00017722 Ry

     iteration #  5     ecut=    50.00 Ry     beta=0.70
     Davidson diagonalization with overlap
     ethr =  6.33E-07,  avg # of iterations =  2.2

     total cpu time spent up to now is      914.2 secs

     total energy              =    -318.48860724 Ry
     Harris-Foulkes estimate   =    -318.48860815 Ry
     estimated scf accuracy    <       0.00000168 Ry

     iteration #  6     ecut=    50.00 Ry     beta=0.70
     Davidson diagonalization with overlap
     ethr =  6.01E-09,  avg # of iterations =  4.0

     total cpu time spent up to now is      932.9 secs

     total energy              =    -318.48860833 Ry
     Harris-Foulkes estimate   =    -318.48860834 Ry
     estimated scf accuracy    <       0.00000002 Ry

     iteration #  7     ecut=    50.00 Ry     beta=0.70
     Davidson diagonalization with overlap
     ethr =  8.17E-11,  avg # of iterations =  3.1

     total cpu time spent up to now is      946.2 secs

     total energy              =    -318.48860833 Ry
     Harris-Foulkes estimate   =    -318.48860834 Ry
     estimated scf accuracy    <          5.0E-09 Ry

     iteration #  8     ecut=    50.00 Ry     beta=0.70
     Davidson diagonalization with overlap
     ethr =  1.80E-11,  avg # of iterations =  2.3

     total cpu time spent up to now is      959.6 secs

     total energy              =    -318.48860834 Ry
     Harris-Foulkes estimate   =    -318.48860834 Ry
     estimated scf accuracy    <          1.5E-10 Ry

     iteration #  9     ecut=    50.00 Ry     beta=0.70
     Davidson diagonalization with overlap
     ethr =  5.30E-13,  avg # of iterations =  4.0

     total cpu time spent up to now is      977.3 secs

     total energy              =    -318.48860834 Ry
     Harris-Foulkes estimate   =    -318.48860834 Ry
     estimated scf accuracy    <          1.9E-11 Ry

     iteration # 10     ecut=    50.00 Ry     beta=0.70
     Davidson diagonalization with overlap
     ethr =  1.00E-13,  avg # of iterations =  2.5

     total cpu time spent up to now is      989.9 secs

     total energy              =    -318.48860834 Ry
     Harris-Foulkes estimate   =    -318.48860834 Ry
     estimated scf accuracy    <          3.3E-12 Ry

     iteration # 11     ecut=    50.00 Ry     beta=0.70
     Davidson diagonalization with overlap
     ethr =  1.00E-13,  avg # of iterations =  1.0

     total cpu time spent up to now is     1000.4 secs

     End of self-consistent calculation

     Number of k-points >= 100: set verbosity='high' to print the bands.

     highest occupied level (ev):     7.5487

!    total energy              =    -318.48860834 Ry
     Harris-Foulkes estimate   =    -318.48860834 Ry
     estimated scf accuracy    <          4.3E-14 Ry

     The total energy is the sum of the following terms:

     one-electron contribution =    -157.95169874 Ry
     hartree contribution      =      96.00054469 Ry
     xc contribution           =     -86.00565050 Ry
     ewald contribution        =    -170.53180379 Ry

     convergence has been achieved in  11 iterations

     Forces acting on atoms (cartesian axes, Ry/au):

     atom    1 type  1   force =    -0.00000000    0.00000000    0.00000000
     atom    2 type  1   force =     0.00000000   -0.00000000    0.00000000

     Total force =     0.000000     Total SCF correction =     0.000000


     Computing stress (Cartesian axis) and pressure

          total   stress  (Ry/bohr**3)                   (kbar)     P=   -0.06
  -0.00000038   0.00000000   0.00000000         -0.06      0.00      0.00
   0.00000000  -0.00000038   0.00000000          0.00     -0.06      0.00
   0.00000000   0.00000000  -0.00000038          0.00      0.00     -0.06


     Writing output data file sn.alpha.relax.save

     init_run     :     12.11s CPU     12.58s WALL (       2 calls)
     electrons    :    930.75s CPU    959.34s WALL (       5 calls)
     update_pot   :      2.98s CPU      3.00s WALL (       3 calls)
     forces       :      5.75s CPU      5.86s WALL (       5 calls)
     stress       :     21.44s CPU     21.60s WALL (       5 calls)

     Called by init_run:
     wfcinit      :     10.03s CPU     10.45s WALL (       2 calls)
     potinit      :      0.30s CPU      0.31s WALL (       2 calls)

     Called by electrons:
     c_bands      :    791.34s CPU    814.85s WALL (      64 calls)
     sum_band     :    131.90s CPU    136.48s WALL (      64 calls)
     v_of_rho     :      3.14s CPU      3.18s WALL (      69 calls)
     newd         :      4.28s CPU      4.78s WALL (      69 calls)
     mix_rho      :      0.33s CPU      0.34s WALL (      64 calls)

     Called by c_bands:
     init_us_2    :     22.59s CPU     23.08s WALL (   57120 calls)
     cegterg      :    749.50s CPU    772.47s WALL (   26112 calls)

     Called by sum_band:
     sum_band:bec :      0.28s CPU      0.29s WALL (   26112 calls)
     addusdens    :      4.65s CPU      5.53s WALL (      64 calls)

     Called by *egterg:
     h_psi        :    628.91s CPU    650.32s WALL (   94204 calls)
     s_psi        :     10.89s CPU     11.19s WALL (   94204 calls)
     g_psi        :      4.19s CPU      4.23s WALL (   67276 calls)
     cdiaghg      :     35.70s CPU     36.18s WALL (   92164 calls)

     Called by h_psi:
     h_psi:pot    :    623.57s CPU    644.85s WALL (   94204 calls)
     h_psi:calbec :     25.55s CPU     26.42s WALL (   94204 calls)
     vloc_psi     :    583.82s CPU    603.78s WALL (   94204 calls)
     add_vuspsi   :     13.76s CPU     14.25s WALL (   94204 calls)

     General routines
     calbec       :     34.26s CPU     35.43s WALL (  130516 calls)
     fft          :      1.62s CPU      1.67s WALL (    1212 calls)
     ffts         :      0.05s CPU      0.05s WALL (     133 calls)
     fftw         :    561.57s CPU    580.75s WALL ( 2588986 calls)
     interpolate  :      0.28s CPU      0.29s WALL (     133 calls)
     davcio       :      0.02s CPU      0.05s WALL (     816 calls)

     Parallel routines
     fft_scatter  :     89.61s CPU     93.01s WALL ( 2590331 calls)

     PWSCF        : 16m15.21s CPU    16m44.81s WALL


   This run was terminated on:  13:29:57  22Jan2018            

=------------------------------------------------------------------------------=
   JOB DONE.
=------------------------------------------------------------------------------=
